LAMMPS (30 Jul 2021)
OMP_NUM_THREADS environment is not set. Defaulting to 1 thread. (src/comm.cpp:98)
  using 1 OpenMP thread(s) per MPI task
# Define variables
# Starting temperature:
variable T equal 1
# Number of particles:
variable N equal 100
# Density:
variable rho equal 0.002
# Length of sides of cubic box
variable L equal ($N/${rho})^(1/3)
variable L equal (100/${rho})^(1/3)
variable L equal (100/0.002)^(1/3)
# How much heat to add per timestep
variable eFlux equal 1



# Use Lennard-Jones units, periodic boundaries and atomic model
units lj
boundary p p p
atom_style atomic

# Define the space and put atoms in
dimension 3
region simbox block 0 $L 0 $L 0 $L
region simbox block 0 36.8403149864039 0 $L 0 $L
region simbox block 0 36.8403149864039 0 36.8403149864039 0 $L
region simbox block 0 36.8403149864039 0 36.8403149864039 0 36.8403149864039
create_box 1 simbox
Created orthogonal box = (0.0000000 0.0000000 0.0000000) to (36.840315 36.840315 36.840315)
  1 by 1 by 1 MPI processor grid

# Define properties of the atoms



create_atoms 1 random $N 12345 simbox
create_atoms 1 random 100 12345 simbox
Created 100 atoms
  using lattice units in orthogonal box = (0.0000000 0.0000000 0.0000000) to (36.840315 36.840315 36.840315)
  create_atoms CPU = 0.000 seconds
mass 1 1.0
velocity all create $T 87287
velocity all create 1 87287
pair_style lj/cut 2.5
pair_coeff 1 1 1.0 1.0 2.5


#make sure no explosion happens
minimize 1e-4 1e-4 100 100
WARNING: Using 'neigh_modify every 1 delay 0 check yes' setting during minimization (src/min.cpp:189)
Neighbor list info ...
  update every 1 steps, delay 0 steps, check yes
  max neighbors/atom: 2000, page size: 100000
  master list distance cutoff = 2.8
  ghost atom cutoff = 2.8
  binsize = 1.4, bins = 27 27 27
  1 neighbor lists, perpetual/occasional/extra = 1 0 0
  (1) pair lj/cut, perpetual
      attributes: half, newton on
      pair build: half/bin/atomonly/newton
      stencil: half/bin/3d
      bin: standard
Per MPI rank memory allocation (min/avg/max) = 4.307 | 4.307 | 4.307 Mbytes
Step Temp E_pair E_mol TotEng Press 
       0            1 -0.011299568            0    1.4737004  0.001955247 
      25            1 -0.059982503            0    1.4250175 0.0019843421 
Loop time of 0 on 1 procs for 25 steps with 100 atoms

0.0% CPU use with 1 MPI tasks x 1 OpenMP threads

Minimization stats:
  Stopping criterion = energy tolerance
  Energy initial, next-to-last, final = 
    -0.011299567674501 -0.0599804251013234 -0.0599825027853756
  Force two-norm initial, final = 3.0004077 0.65002160
  Force max component initial, final = 1.9186049 0.26024463
  Final line search alpha, max atom move = 0.021535797 0.0056045754
  Iterations, force evaluations = 25 81

MPI task timing breakdown:
Section |  min time  |  avg time  |  max time  |%varavg| %total
---------------------------------------------------------------
Pair    | 0          | 0          | 0          |   0.0 |  0.00
Neigh   | 0          | 0          | 0          |   0.0 |  0.00
Comm    | 0          | 0          | 0          |   0.0 |  0.00
Output  | 0          | 0          | 0          |   0.0 |  0.00
Modify  | 0          | 0          | 0          |   0.0 |  0.00
Other   |            | 0          |            |       |  0.00

Nlocal:        100.000 ave         100 max         100 min
Histogram: 1 0 0 0 0 0 0 0 0 0
Nghost:        59.0000 ave          59 max          59 min
Histogram: 1 0 0 0 0 0 0 0 0 0
Neighs:        9.00000 ave           9 max           9 min
Histogram: 1 0 0 0 0 0 0 0 0 0

Total # of neighbors = 9
Ave neighs/atom = 0.090000000
Neighbor list builds = 12
Dangerous builds = 0





# Speed up simulation with neighbour lists
neighbor 0.3 bin
neigh_modify every 20 delay 0 check yes

# Define thermodynamic ensemble for thermalization
fix nvt all nvt temp $T $T 1
fix nvt all nvt temp 1 $T 1
fix nvt all nvt temp 1 1 1

#Thermalization run
run 10000
Per MPI rank memory allocation (min/avg/max) = 3.182 | 3.182 | 3.182 Mbytes
Step Temp E_pair E_mol TotEng Press 
      25            1 -0.059982503            0    1.4250175 0.0019843421 
   10025    1.1496702 -0.0035544004            0    1.7037058 0.0022626296 
Loop time of 0.039016 on 1 procs for 10000 steps with 100 atoms

Performance: 110723781.845 tau/day, 256305.051 timesteps/s
80.1% CPU use with 1 MPI tasks x 1 OpenMP threads

MPI task timing breakdown:
Section |  min time  |  avg time  |  max time  |%varavg| %total
---------------------------------------------------------------
Pair    | 0          | 0          | 0          |   0.0 |  0.00
Neigh   | 0          | 0          | 0          |   0.0 |  0.00
Comm    | 0.013024   | 0.013024   | 0.013024   |   0.0 | 33.38
Output  | 0          | 0          | 0          |   0.0 |  0.00
Modify  | 0.012962   | 0.012962   | 0.012962   |   0.0 | 33.22
Other   |            | 0.01303    |            |       | 33.40

Nlocal:        100.000 ave         100 max         100 min
Histogram: 1 0 0 0 0 0 0 0 0 0
Nghost:        55.0000 ave          55 max          55 min
Histogram: 1 0 0 0 0 0 0 0 0 0
Neighs:        5.00000 ave           5 max           5 min
Histogram: 1 0 0 0 0 0 0 0 0 0

Total # of neighbors = 5
Ave neighs/atom = 0.050000000
Neighbor list builds = 500
Dangerous builds = 500

# Define thermodynamic ensemble for long run
unfix nvt
fix nve all nve

# Start heat addition and run to stabilize
fix heat all heat 1 ${eFlux} region simbox
fix heat all heat 1 1 region simbox
run 1000
Per MPI rank memory allocation (min/avg/max) = 3.182 | 3.182 | 3.182 Mbytes
Step Temp E_pair E_mol TotEng Press 
   10025    1.1496702 -0.0035544004            0    1.7037058 0.0022626296 
   11025    1.1962977 -0.023766024            0     1.752736 0.0023202958 
Loop time of 0.00900912 on 1 procs for 1000 steps with 100 atoms

Performance: 47951394.077 tau/day, 110998.597 timesteps/s
173.4% CPU use with 1 MPI tasks x 1 OpenMP threads

MPI task timing breakdown:
Section |  min time  |  avg time  |  max time  |%varavg| %total
---------------------------------------------------------------
Pair    | 0          | 0          | 0          |   0.0 |  0.00
Neigh   | 0          | 0          | 0          |   0.0 |  0.00
Comm    | 0          | 0          | 0          |   0.0 |  0.00
Output  | 0          | 0          | 0          |   0.0 |  0.00
Modify  | 0.0090091  | 0.0090091  | 0.0090091  |   0.0 |100.00
Other   |            | 0          |            |       |  0.00

Nlocal:        100.000 ave         100 max         100 min
Histogram: 1 0 0 0 0 0 0 0 0 0
Nghost:        50.0000 ave          50 max          50 min
Histogram: 1 0 0 0 0 0 0 0 0 0
Neighs:        13.0000 ave          13 max          13 min
Histogram: 1 0 0 0 0 0 0 0 0 0

Total # of neighbors = 13
Ave neighs/atom = 0.13000000
Neighbor list builds = 50
Dangerous builds = 50

#Define new thermodynamic output and trajectory dump and start production run
thermo_style custom time temp press pe ke epair etotal
thermo 100
dump 1 all custom 100 dump.lammpstrj id x y z vx vy vz
run 100000
Per MPI rank memory allocation (min/avg/max) = 3.183 | 3.183 | 3.183 Mbytes
Time Temp Press PotEng KinEng E_pair TotEng 
          55    1.1962977 0.0023202958 -0.023766024     1.776502 -0.023766024     1.752736 
      55.375    1.1875538 0.0023251895 -0.0068708207    1.7635174 -0.0068708207    1.7566466 
      55.875    1.1972897 0.0023149507 -0.015677916    1.7779751 -0.015677916    1.7622972 
      56.375     1.205155 0.0023204194 -0.022851758    1.7896551 -0.022851758    1.7668034 
      56.875    1.2039181 0.0023286713 -0.015850493    1.7878184 -0.015850493    1.7719679 
      57.375    1.2005816 0.0023544801 -0.005895509    1.7828637 -0.005895509    1.7769682 
      57.875    1.2052497 0.0023574017 -0.0076695079    1.7897958 -0.0076695079    1.7821263 
      58.375    1.2230811 0.0024071367 -0.029154631    1.8162755 -0.029154631    1.7871209 
      58.875    1.2237524 0.0024019842 -0.025147621    1.8172723 -0.025147621    1.7921247 
      59.375     1.217121 0.0023695849 -0.010621152    1.8074247 -0.010621152    1.7968035 
      59.875    1.2227775 0.0023769496 -0.013856451    1.8158246 -0.013856451    1.8019681 
      60.375    1.2219529 0.0023929389 -0.0073085409       1.8146 -0.0073085409    1.8072915 
      60.875    1.2254552  0.002399628 -0.0073458117     1.819801 -0.0073458117    1.8124552 
      61.375    1.2318619 0.0024034768 -0.011694439     1.829315 -0.011694439    1.8176205 
      61.875    1.2354809 0.0024536866 -0.012073815    1.8346891 -0.012073815    1.8226153 
      62.375    1.2329793 0.0024292856 -0.0031890152    1.8309742 -0.0031890152    1.8277852 
      62.875    1.2361796 0.0024364521 -0.002939917    1.8357267 -0.002939917    1.8327868 
      63.375    1.2439601 0.0024337585 -0.009657131    1.8472807 -0.009657131    1.8376235 
      63.875    1.2455531 0.0024405023 -0.0071854818    1.8496463 -0.0071854818    1.8424608 
      64.375    1.2463903 0.0024533503 -0.0037559668    1.8508895 -0.0037559668    1.8471336 
      64.875    1.2507383 0.0024567535 -0.0052093892    1.8573464 -0.0052093892     1.852137 
      65.375    1.2552907 0.0025712354 -0.0064777813    1.8641066 -0.0064777813    1.8576288 
      65.875    1.2567594 0.0024745928 -0.0036598922    1.8662878 -0.0036598922    1.8626279 
      66.375    1.2664281 0.0024652414 -0.014026429    1.8806458 -0.014026429    1.8666194 
      66.875    1.2784119 0.0024878153 -0.026660403    1.8984416 -0.026660403    1.8717812 
      67.375    1.2689145 0.0024847364 -0.0073864253    1.8843381 -0.0073864253    1.8769517 
      67.875    1.2732817 0.0024922382 -0.0085543576    1.8908233 -0.0085543576     1.882269 
      68.375    1.2775151 0.0024966981 -0.0095127965    1.8971099 -0.0095127965    1.8875971 
      68.875    1.2820174 0.0025311585 -0.011533324    1.9037959 -0.011533324    1.8922625 
      69.375    1.2864174  0.002532321 -0.013227571    1.9103298 -0.013227571    1.8971022 
      69.875    1.2903462 0.0025102728 -0.014055776     1.916164 -0.014055776    1.9021083 
      70.375    1.2939497 0.0025680014 -0.014418105    1.9215153 -0.014418105    1.9070972 
      70.875    1.2958383 0.0025325256  -0.01205389    1.9243199  -0.01205389     1.912266 
      71.375    1.2983857 0.0025322622 -0.010836758    1.9281028 -0.010836758    1.9172661 
      71.875    1.3034665 0.0025405997 -0.013217744    1.9356477 -0.013217744      1.92243 
      72.375    1.3003097 0.0025609625 -0.0035282488    1.9309599 -0.0035282488    1.9274317 
      72.875    1.3031782 0.0025686849 -0.0029502441    1.9352196 -0.0029502441    1.9322693 
      73.375    1.3072196 0.0027232066 -0.0037940382    1.9412211 -0.0037940382     1.937427 
      73.875    1.3106735 0.0027225109 -0.0039182931    1.9463501 -0.0039182931    1.9424318 
      74.375    1.3217217 0.0025644199 -0.015813217    1.9627567 -0.015813217    1.9469435 
      74.875    1.3188609 0.0027810312 -0.0068702384    1.9585085 -0.0068702384    1.9516382 
      75.375    1.3234428 0.0025902383 -0.0083720935    1.9653126 -0.0083720935    1.9569405 
      75.875    1.3218715  0.002804718 -0.0011800528    1.9629792 -0.0011800528    1.9617992 
      76.375    1.3390903 0.0026139914 -0.021614847     1.988549 -0.021614847    1.9669342 
      76.875    1.3323079  0.002614454 -0.0063792017    1.9784773 -0.0063792017    1.9720981 
      77.375     1.340151 0.0027654436 -0.012849428    1.9901243 -0.012849428    1.9772749 
      77.875    1.3382684  0.002628881 -0.0053898544    1.9873286 -0.0053898544    1.9819387 
      78.375    1.3421414 0.0026355466 -0.0058103114      1.99308 -0.0058103114    1.9872697 
      78.875    1.3499156 0.0026326534 -0.012353011    2.0046246 -0.012353011    1.9922716 
      79.375    1.3527825 0.0026377178 -0.011939608    2.0088819 -0.011939608    1.9969423 
      79.875    1.3527084 0.0026529392 -0.0066662647    2.0087719 -0.0066662647    2.0021057 
      80.375    1.3535872 0.0026711238 -0.0023167157     2.010077 -0.0023167157    2.0077602 
      80.875    1.3570608 0.0026753413 -0.0029665493    2.0152353 -0.0029665493    2.0122688 
      81.375    1.3627059 0.0026744747 -0.0063496494    2.0236182 -0.0063496494    2.0172685 
      81.875    1.3777601 0.0026698847 -0.023873055    2.0459738 -0.023873055    2.0221007 
      82.375    1.3725882 0.0026797262 -0.011348025    2.0382935 -0.011348025    2.0269454 
      82.875     1.380756 0.0026869436 -0.018644363    2.0504227 -0.018644363    2.0317783 
      83.375    1.3747783 0.0027039675 -0.0046026644    2.0415458 -0.0046026644    2.0369431 
      83.875    1.3826462 0.0027586036 -0.010491488    2.0532296 -0.010491488    2.0427381 
      84.375    1.3793595 0.0027294321 -0.00042730188    2.0483489 -0.00042730188    2.0479216 
      84.875    1.3844142 0.0027303047 -0.0029334254    2.0558551 -0.0029334254    2.0529217 
      85.375    1.3871223 0.0027348813 -0.0029369531    2.0598766 -0.0029369531    2.0569396 
      85.875    1.4095147 0.0028415608 -0.030903015    2.0931293 -0.030903015    2.0622263 
      86.375    1.3965601 0.0027406052 -0.0069545411    2.0738917 -0.0069545411    2.0669372 
      86.875    1.3970315 0.0027589307 -0.0018397685    2.0745918 -0.0018397685     2.072752 
      87.375    1.4064817 0.0028120083 -0.010879129    2.0886254 -0.010879129    2.0777463 
      87.875    1.4166443 0.0027670271 -0.021698431    2.1037168 -0.021698431    2.0820184 
      88.375    1.4130996 0.0027588535 -0.011078744     2.098453 -0.011078744    2.0873742 
      88.875    1.4171579 0.0027744789 -0.012113611    2.1044794 -0.012113611    2.0923658 
      89.375    1.4234089  0.002871539 -0.016279461    2.1137622 -0.016279461    2.0974828 
      89.875      1.41845 0.0027929513 -0.0040298615    2.1063983 -0.0040298615    2.1023685 
      90.375     1.420597 0.0028067902 -0.0015644318    2.1095865 -0.0015644318     2.108022 
      90.875     1.426119 0.0028045682 -0.0052536708    2.1177867 -0.0052536708    2.1125331 
      91.375     1.443257 0.0028121485 -0.026049692    2.1432366 -0.026049692    2.1171869 
      91.875    1.4367811 0.0028013287  -0.01192747    2.1336199  -0.01192747    2.1216924 
      92.375    1.4436734 0.0028123145 -0.017658183    2.1438551 -0.017658183    2.1261969 
      92.875     1.441898 0.0031906295 -0.0097174345    2.1412186 -0.0097174345    2.1315012 
      93.375    1.4450768  0.002829868 -0.009250557    2.1459391 -0.009250557    2.1366885 
      93.875    1.4472512 0.0028398648 -0.0068230686    2.1491681 -0.0068230686     2.142345 
      94.375    1.4544514 0.0028343341 -0.013004374    2.1598603 -0.013004374    2.1468559 
      94.875    1.4585621 0.0028838298 -0.013801113    2.1659647 -0.013801113    2.1521636 
      95.375     1.454456 0.0028713218 -0.0021999135    2.1598672 -0.0021999135    2.1576673 
      95.875    1.4578689 0.0028778804 -0.0022643376    2.1649353 -0.0022643376     2.162671 
      96.375    1.4704257  0.002870853 -0.015916464    2.1835822 -0.015916464    2.1676657 
      96.875    1.4651587 0.0028890498 -0.0030931949    2.1757607 -0.0030931949    2.1726675 
      97.375    1.4731637 0.0028822878 -0.010144543    2.1876481 -0.010144543    2.1775036 
      97.875    1.4815081 0.0029322021 -0.018072518    2.2000395 -0.018072518     2.181967 
      98.375    1.4849572 0.0028849737 -0.017824757    2.2051614 -0.017824757    2.1873366 
      98.875    1.4784436 0.0029165004 -0.0028271629    2.1954887 -0.0028271629    2.1926616 
      99.375    1.4803005 0.0029293056 -0.00042463567    2.1982462 -0.00042463567    2.1978215 
      99.875    1.4836341 0.0029367529 -0.00021177729    2.2031966 -0.00021177729    2.2029849 
     100.375    1.4870074 0.0029433967 -0.00022072676     2.208206 -0.00022072676    2.2079853 
     100.875    1.4921822 0.0029408024 -0.0035556945    2.2158906 -0.0035556945    2.2123349 
     101.375    1.4966421 0.0029421209 -0.0054991934    2.2225136 -0.0054991934    2.2170144 
     101.875    1.5069575 0.0030671098 -0.015817881    2.2378319 -0.015817881     2.222014 
     102.375    1.5014142 0.0029639223 -0.0022574149    2.2296001 -0.0022574149    2.2273427 
     102.875    1.5068101 0.0029648146 -0.0051409987    2.2376131 -0.0051409987    2.2324721 
     103.375    1.5089448 0.0029773516 -0.0028234372    2.2407831 -0.0028234372    2.2379596 
     103.875    1.5112153 0.0029862018 -0.0015213938    2.2441547 -0.0015213938    2.2426333 
     104.375    1.5183958 0.0029780706 -0.0076730547    2.2548177 -0.0076730547    2.2471447 
     104.875    1.5301607 0.0030362011 -0.020310008    2.2722886 -0.020310008    2.2519786 
     105.375    1.5288899 0.0030595012 -0.013584991    2.2704015 -0.013584991    2.2568165 
     105.875    1.5307137 0.0029921813 -0.010955484    2.2731099 -0.010955484    2.2621544 
     106.375     1.534287 0.0030029122 -0.011268025    2.2784162 -0.011268025    2.2671482 
     106.875    1.5365996  0.003104173 -0.0095412175    2.2818504 -0.0095412175    2.2723092 
     107.375    1.5415641 0.0030095099 -0.012391799    2.2892227 -0.012391799    2.2768309 
     107.875    1.5556955 0.0030486404 -0.028703936    2.3102077 -0.028703936    2.2815038 
     108.375     1.551733 0.0030067495 -0.018148276    2.3043235 -0.018148276    2.2861752 
     108.875    1.5598215 0.0030168568 -0.024996148     2.316335 -0.024996148    2.2913388 
     109.375    1.5508478 0.0030486089 -0.0058544569     2.303009 -0.0058544569    2.2971545 
     109.875    1.5569445 0.0031139968 -0.0090978139    2.3120626 -0.0090978139    2.3029648 
     110.375    1.5569395 0.0030666654 -0.0044168628    2.3120551 -0.0044168628    2.3076383 
     110.875    1.5645197 0.0030562357 -0.011328327    2.3233117 -0.011328327    2.3119834 
     111.375    1.5779744 0.0030815293  -0.02600059     2.343292  -0.02600059    2.3172914 
     111.875    1.5689045 0.0030772241 -0.0078478058    2.3298231 -0.0078478058    2.3219753 
     112.375    1.5839146 0.0031100223  -0.02547058    2.3521131  -0.02547058    2.3266425 
     112.875    1.5787632 0.0031653988 -0.012672378    2.3444634 -0.012672378     2.331791 
     113.375    1.5765744 0.0031042975 -0.0044104264    2.3412131 -0.0044104264    2.3368026 
     113.875    1.5825773 0.0031066801 -0.0076710528    2.3501273 -0.0076710528    2.3424562 
     114.375    1.5871857  0.003121488 -0.0095136727    2.3569708 -0.0095136727    2.3474571 
     114.875    1.5916878  0.003178756 -0.011695342    2.3636564 -0.011695342    2.3519611 
     115.375      1.58956 0.0031334626 -0.003532553    2.3604966 -0.003532553     2.356964 
     115.875    1.6008029 0.0032885806 -0.015550172    2.3771923 -0.015550172    2.3616421 
     116.375    1.6093571 0.0031143495 -0.023257214    2.3898953 -0.023257214    2.3666381 
     116.875    1.6022048 0.0031411298 -0.0081233326    2.3792741 -0.0081233326    2.3711508 
     117.375     1.604669 0.0031554314 -0.0058088362    2.3829335 -0.0058088362    2.3771247 
     117.875     1.615765 0.0031682859 -0.017296573    2.3994111 -0.017296573    2.3821145 
     118.375    1.6036829 0.0035127687 0.0045789379     2.381469 0.0045789379     2.386048 
     118.875    1.6268335 0.0032892141 -0.024543326    2.4158478 -0.024543326    2.3913045 
     119.375     1.626883 0.0031791518  -0.01930469    2.4159213  -0.01930469    2.3966166 
     119.875    1.6268768 0.0032039024 -0.014455175    2.4159121 -0.014455175    2.4014569 
     120.375    1.6313048 0.0031779491 -0.015868215    2.4224877 -0.015868215    2.4066195 
     120.875    1.6261406 0.0032097374 -0.0025554394    2.4148187 -0.0025554394    2.4122633 
     121.375    1.6370531  0.003280808 -0.013654895    2.4310238 -0.013654895    2.4173689 
     121.875    1.6331946 0.0032219462 -0.0030357536     2.425294 -0.0030357536    2.4222583 
     122.375    1.6417893 0.0032361651 -0.010798458    2.4380572 -0.010798458    2.4272587 
     122.875    1.6399396 0.0032358202 -0.0028874457    2.4353104 -0.0028874457    2.4324229 
     123.375    1.6431196 0.0032439321 -0.002442074    2.4400326 -0.002442074    2.4375906 
     123.875    1.6492426 0.0032456237 -0.0063698739    2.4491252 -0.0063698739    2.4427553 
     124.375    1.6513674 0.0032513135 -0.0048489904    2.4522806 -0.0048489904    2.4474316 
     124.875    1.6623745  0.003511838 -0.016725739    2.4686261 -0.016725739    2.4519003 
     125.375    1.6602235 0.0032555363 -0.0088149579     2.465432 -0.0088149579     2.456617 
     125.875    1.6625557 0.0032651454 -0.0071162922    2.4688952 -0.0071162922    2.4617789 
     126.375    1.6794619 0.0034264233 -0.027081446     2.494001 -0.027081446    2.4669195 
     126.875    1.6717088  0.003274776 -0.010385867    2.4824876 -0.010385867    2.4721018 
     127.375     1.675716 0.0032849538 -0.011009723    2.4884382 -0.011009723    2.4774285 
     127.875    1.6838214 0.0033009886 -0.019027559    2.5004748 -0.019027559    2.4814473 
     128.375    1.6861511 0.0033796504 -0.017053207    2.5039344 -0.017053207    2.4868812 
     128.875    1.6815647 0.0033102787 -0.0050708575    2.4971235 -0.0050708575    2.4920527 
     129.375    1.6894611 0.0033073241 -0.011630964    2.5088497 -0.011630964    2.4972188 
     129.875    1.6965265 0.0033210332 -0.017294127    2.5193418 -0.017294127    2.5020477 
     130.375    1.6968123 0.0033463849 -0.013207338    2.5197662 -0.013207338    2.5065589 
     130.875    1.6951359 0.0033343463 -0.005712817    2.5172768 -0.005712817     2.511564 
     131.375    1.7038278 0.0033558567 -0.013465645    2.5301843 -0.013465645    2.5167187 
     131.875    1.7003576 0.0033563519 -0.0026559415     2.525031 -0.0026559415    2.5223751 
     132.375    1.7077151 0.0033572617 -0.0087497634    2.5359569 -0.0087497634    2.5272071 
     132.875    1.7114672 0.0033549971 -0.0094886669    2.5415288 -0.0094886669    2.5320401 
     133.375    1.7142745 0.0033690723 -0.0083343524    2.5456976 -0.0083343524    2.5373632 
     133.875    1.7131677 0.0033867494 -0.0013659613     2.544054 -0.0013659613    2.5426881 
     134.375    1.7164395 0.0033937261 -0.001229305    2.5489126 -0.001229305    2.5476833 
     134.875    1.7197435  0.003399961 -0.0013003349    2.5538192 -0.0013003349    2.5525188 
     135.375    1.7190759 0.0036466137 0.0043491407    2.5528276 0.0043491407    2.5571768 
     135.875      1.73743 0.0034120711 -0.017737595    2.5800836 -0.017737595     2.562346 
     136.375    1.7385147 0.0034135529 -0.014843395    2.5816944 -0.014843395     2.566851 
     136.875    1.7344647  0.003422694 -0.0030105438    2.5756801 -0.0030105438    2.5726696 
     137.375    1.7379318 0.0034277027 -0.0034858647    2.5808287 -0.0034858647    2.5773428 
     137.875    1.7413646 0.0034326856 -0.003908265    2.5859264 -0.003908265    2.5820181 
     138.375    1.7459611 0.0034362891 -0.0055714528    2.5927522 -0.0055714528    2.5871807 
     138.875    1.7497758 0.0034400449 -0.0064010096    2.5984171 -0.0064010096    2.5920161 
     139.375    1.7635283 0.0035403571 -0.021977888    2.6188395 -0.021977888    2.5968616 
     139.875    1.7553761 0.0034575046 -0.0047163788    2.6067335 -0.0047163788    2.6020171 
     140.375    1.7629808 0.0034634962  -0.01085134    2.6180265  -0.01085134    2.6071751 
     140.875    1.7627974 0.0034700856 -0.005415253    2.6177541 -0.005415253    2.6123389 
     141.375    1.7643168 0.0034822482 -0.0028305477    2.6200105 -0.0028305477    2.6171799 
     141.875     1.767769 0.0034885677 -0.0029698349    2.6251369 -0.0029698349    2.6221671 
     142.375    1.7760731 0.0034870237 -0.010299609    2.6374686 -0.010299609     2.627169 
     142.875    1.7749151 0.0035004031 -0.0035795084     2.635749 -0.0035795084    2.6321695 
     143.375    1.7809353 0.0036054279 -0.0072601079    2.6446889 -0.0072601079    2.6374288 
     143.875    1.7904317 0.0036298766 -0.016143512    2.6587911 -0.016143512    2.6426476 
     144.375    1.7860863 0.0035183168 -0.0048503892    2.6523381 -0.0048503892    2.6474877 
     144.875     1.790074 0.0035243603 -0.0057714251      2.65826 -0.0057714251    2.6524885 
     145.375    1.7923807  0.003532334 -0.0043661818    2.6616854 -0.0043661818    2.6573192 
     145.875    1.8013944 0.0035263716 -0.012745546    2.6750706 -0.012745546    2.6623251 
     146.375    1.8063706 0.0036483591 -0.015644507    2.6824603 -0.015644507    2.6668158 
     146.875    1.8039685 0.0035425172 -0.0075611489    2.6788932 -0.0075611489    2.6713321 
     147.375    1.8150123 0.0035508313 -0.018470529    2.6952932 -0.018470529    2.6768227 
     147.875     1.808721 0.0035668461 -0.003810578    2.6859506 -0.003810578    2.6821401 
     148.375    1.8113014 0.0035768649 -0.0024826331    2.6897826 -0.0024826331       2.6873 
     148.875    1.8164853 0.0035770765 -0.005178402    2.6974807 -0.005178402    2.6923023 
     149.375    1.8260205 0.0035610913 -0.014987181    2.7116404 -0.014987181    2.6966533 
     149.875    1.8257984 0.0035783204 -0.0098243084    2.7113107 -0.0098243084    2.7014864 
     150.375    1.8306186 0.0036282202 -0.011657485    2.7184686 -0.011657485    2.7068111 
     150.875    1.8386649 0.0037081267 -0.018433973    2.7304174 -0.018433973    2.7119834 
     151.375    1.8344959 0.0036070878 -0.0074114856    2.7242265 -0.0074114856     2.716815 
     151.875     1.844523 0.0036247856 -0.016867604    2.7391166 -0.016867604     2.722249 
     152.375    1.8442709 0.0036719437 -0.011672317    2.7387423 -0.011672317      2.72707 
     152.875    1.8465624 0.0036345984 -0.010055883    2.7421452 -0.010055883    2.7320894 
     153.375    1.8447636 0.0036446157 -0.0020599796    2.7394739 -0.0020599796     2.737414 
     153.875    1.8555552 0.0036368595 -0.013742253    2.7554994 -0.013742253    2.7417572 
     154.375    1.8656766 0.0037740008 -0.023782378    2.7705297 -0.023782378    2.7467474 
     154.875    1.8550411 0.0036612229 -0.0029787146     2.754736 -0.0029787146    2.7517573 
     155.375    1.8716595 0.0036414509 -0.022499589    2.7794144 -0.022499589    2.7569148 
     155.875    1.8718071 0.0036419899 -0.018369675    2.7796335 -0.018369675    2.7612638 
     156.375    1.8758017 0.0036723162 -0.018817579    2.7855656 -0.018817579     2.766748 
     156.875    1.8747471 0.0036656005 -0.012412534    2.7839994 -0.012412534    2.7715869 
     157.375    1.8712643  0.003697538 -0.0019105241    2.7788275 -0.0019105241     2.776917 
     157.875    1.8816365 0.0036808397 -0.012813697    2.7942302 -0.012813697    2.7814165 
     158.375    1.8888767 0.0036928102 -0.018077664     2.804982 -0.018077664    2.7869043 
     158.875     1.881445 0.0037185067 -0.0017136404    2.7939458 -0.0017136404    2.7922322 
     159.375    1.8857214  0.003721857 -0.0030629107    2.8002963 -0.0030629107    2.7972334 
     159.875     1.888587 0.0037303069 -0.0023221561    2.8045517 -0.0023221561    2.8022296 
     160.375    1.8918034 0.0037374267 -0.0021219187    2.8093281 -0.0021219187    2.8072062 
     160.875    1.9053904 0.0037312307 -0.018028593    2.8295047 -0.018028593    2.8114761 
     161.375    1.9054167 0.0037295397  -0.01306235    2.8295438  -0.01306235    2.8164815 
     161.875    1.9101604 0.0037315828 -0.015152082    2.8365881 -0.015152082    2.8214361 
     162.375    1.9109207 0.0037504162 -0.010787931    2.8377173 -0.010787931    2.8269294 
     162.875    1.9134771 0.0037588834 -0.0094194711    2.8415135 -0.0094194711     2.832094 
     163.375     1.917333 0.0040240142  -0.01080175    2.8472396  -0.01080175    2.8364378 
     163.875    1.9191756  0.003765916 -0.0090244004    2.8499757 -0.0090244004    2.8409513 
     164.375    1.9329653 0.0037931418 -0.024195469    2.8704535 -0.024195469     2.846258 
     164.875    1.9318562   0.00378153 -0.017527461    2.8688065 -0.017527461     2.851279 
     165.375    1.9314728 0.0037953363 -0.011295856    2.8682372 -0.011295856    2.8569413 
     165.875    1.9284409 0.0038125567 -0.0014652974    2.8637347 -0.0014652974    2.8622694 
     166.375    1.9300037  0.004004987 0.0010792899    2.8660555 0.0010792899    2.8671348 
     166.875    1.9410362 0.0038155014 -0.010588657    2.8824387 -0.010588657    2.8718501 
     167.375    1.9393396 0.0038252873 -0.0037232347    2.8799193 -0.0037232347    2.8761961 
     167.875    1.9477803 0.0038355883 -0.010450285    2.8924538 -0.010450285    2.8820035 
     168.375    1.9449067 0.0038468788 -0.0010193844    2.8881865 -0.0010193844    2.8871671 
     168.875    1.9487937 0.0038496274 -0.0022856225    2.8939587 -0.0022856225    2.8916731 
     169.375    1.9607304 0.0038475821 -0.014536837    2.9116846 -0.014536837    2.8971478 
     169.875    1.9576706 0.0038557508 -0.0054810518    2.9071408 -0.0054810518    2.9016598 
     170.375    1.9640757 0.0040682145 -0.010480721    2.9166524 -0.010480721    2.9061717 
     170.875     1.971046 0.0038578933 -0.015503815    2.9270033 -0.015503815    2.9114995 
     171.375    1.9797557 0.0038529899 -0.024124322    2.9399373 -0.024124322     2.915813 
     171.875    1.9706985 0.0038799865 -0.0056592358    2.9264873 -0.0056592358    2.9208281 
     172.375    1.9780166 0.0041450259 -0.011113775    2.9373547 -0.011113775    2.9262409 
     172.875    1.9852382 0.0038784967 -0.017048547    2.9480787 -0.017048547    2.9310302 
     173.375    1.9869771 0.0038848279  -0.01429687     2.950661  -0.01429687    2.9363642 
     173.875    2.0013155 0.0039886095  -0.03075813    2.9719535  -0.03075813    2.9411954 
     174.375    1.9878367 0.0041955981 -0.006021129    2.9519375 -0.006021129    2.9459164 
     174.875    1.9927314 0.0039179865 -0.007535567    2.9592061 -0.007535567    2.9516706 
     175.375    1.9983154  0.003923049 -0.010831439    2.9674984 -0.010831439     2.956667 
     175.875    1.9970769 0.0039367679 -0.0044803404    2.9656592 -0.0044803404    2.9611788 
     176.375    2.0109732 0.0039537947 -0.019801798    2.9862952 -0.019801798    2.9664934 
     176.875    2.0133165 0.0039268817 -0.019144073     2.989775 -0.019144073    2.9706309 
     177.375    2.0223764 0.0040646574 -0.027452256    3.0032289 -0.027452256    2.9757766 
     177.875    2.0300846 0.0039431458 -0.033721495    3.0146756 -0.033721495    2.9809541 
     178.375    2.0238115 0.0039599314 -0.019565293    3.0053601 -0.019565293    2.9857948 
     178.875    2.0196331 0.0039682442 -0.0080302177    2.9991552 -0.0080302177     2.991125 
     179.375    2.0310766 0.0041767581 -0.020188797    3.0161487 -0.020188797    2.9959599 
     179.875    2.0287991 0.0039709958 -0.012128202    3.0127666 -0.012128202    3.0006384 
     180.375    2.0348991 0.0041493237 -0.015684457    3.0218252 -0.015684457    3.0061408 
     180.875    2.0486185 0.0040311506 -0.031622771    3.0421984 -0.031622771    3.0105757 
     181.375    2.0370223 0.0040073882 -0.0083961269    3.0249781 -0.0083961269    3.0165819 
     181.875    2.0368101 0.0040207631 -0.0030837422     3.024663 -0.0030837422    3.0215792 
     182.375    2.0476755 0.0040074434 -0.014217353     3.040798 -0.014217353    3.0265807 
     182.875    2.0444383  0.004033622 -0.0039276457    3.0359909 -0.0039276457    3.0320633 
     183.375    2.0373277 0.0043354952   0.01129019    3.0254316   0.01129019    3.0367218 
     183.875     2.050879 0.0040450012 -0.0041360274    3.0455553 -0.0041360274    3.0414193 
     184.375     2.057008 0.0040443662 -0.0080745105    3.0546568 -0.0080745105    3.0465823 
     184.875    2.0558166 0.0040666546 -0.00097391286    3.0528876 -0.00097391286    3.0519137 
     185.375    2.0603191 0.0040699121 -0.0024971495    3.0595739 -0.0024971495    3.0570767 
     185.875    2.0688737 0.0040927446  -0.01020151    3.0722775  -0.01020151     3.062076 
     186.375    2.0692786 0.0040744228 -0.0061266631    3.0728787 -0.0061266631     3.066752 
     186.875    2.0708119 0.0040856935 -0.0037287548    3.0751557 -0.0037287548    3.0714269 
     187.375     2.078663 0.0041355011 -0.0097529227    3.0868146 -0.0097529227    3.0770617 
     187.875    2.0766886 0.0041035289 -0.002128331    3.0838826 -0.002128331    3.0817543 
     188.375    2.0905277 0.0040969277 -0.018009205    3.1044336 -0.018009205    3.0864244 
     188.875    2.0878627 0.0041041993 -0.0092202598    3.1004761 -0.0092202598    3.0912558 
     189.375    2.0975281   0.00408932 -0.019391497    3.1148292 -0.019391497    3.0954377 
     189.875    2.1032836  0.004139131 -0.022282933    3.1233762 -0.022282933    3.1010933 
     190.375    2.0957879 0.0041281094 -0.005658089     3.112245 -0.005658089    3.1065869 
     190.875    2.0998809 0.0041297321 -0.0073844971    3.1183231 -0.0073844971    3.1109386 
     191.375    2.1076764 0.0041277254 -0.013792839    3.1298995 -0.013792839    3.1161067 
     191.875    2.1149173 0.0042190184 -0.019060375    3.1406523 -0.019060375    3.1215919 
     192.375    2.1110565  0.004153211 -0.0081645228     3.134919 -0.0081645228    3.1267544 
     192.875    2.1123342 0.0041625234 -0.0053149667    3.1368163 -0.0053149667    3.1315014 
     193.375    2.1192214 0.0041559376 -0.011372835    3.1470438 -0.011372835     3.135671 
     193.875    2.1290878 0.0041584893 -0.021034749    3.1616954 -0.021034749    3.1406606 
     194.375    2.1290461 0.0041646839 -0.016171116    3.1616334 -0.016171116    3.1454623 
     194.875    2.1271123 0.0042862365 -0.0073333262    3.1587618 -0.0073333262    3.1514284 
     195.375    2.1275165 0.0042017192 -0.002753791    3.1593621 -0.002753791    3.1566083 
     195.875    2.1330044 0.0043135765 -0.0055848304    3.1675115 -0.0055848304    3.1619267 
     196.375    2.1379667 0.0042039559 -0.0083285041    3.1748805 -0.0083285041     3.166552 
     196.875    2.1466352 0.0042654893 -0.016215931    3.1877532 -0.016215931    3.1715373 
     197.375    2.1411207 0.0042279148 -0.0030040907    3.1795642 -0.0030040907    3.1765601 
     197.875    2.1434688 0.0042388319 -0.0013261266    3.1830512 -0.0013261266    3.1817251 
     198.375    2.1468873 0.0042452855 -0.0014087292    3.1881276 -0.0014087292    3.1867189 
     198.875    2.1560361 0.0044850772 -0.010784443    3.2017136 -0.010784443    3.1909292 
     199.375    2.1573968 0.0042437248 -0.007506993    3.2037343 -0.007506993    3.1962273 
     199.875     2.156444 0.0042673754 -0.00059898682    3.2023194 -0.00059898682    3.2017204 
     200.375    2.1600857 0.0042736331 -0.00084578797    3.2077272 -0.00084578797    3.2068815 
     200.875    2.1761271 0.0042744866 -0.020077806    3.2315487 -0.020077806    3.2114709 
     201.375    2.1723379 0.0042713626 -0.009605209    3.2259217 -0.009605209    3.2163165 
     201.875    2.1698764 0.0042945168 -0.00046239567    3.2222665 -0.00046239567    3.2218041 
     202.375    2.1760369   0.00429175 -0.0047689434    3.2314147 -0.0047689434    3.2266458 
     202.875    2.1867083 0.0042864045 -0.016110927    3.2472618 -0.016110927    3.2311509 
     203.375    2.1908962 0.0044080409 -0.017490972    3.2534809 -0.017490972    3.2359899 
     203.875    2.1856726 0.0043125261 -0.004078614    3.2457238 -0.004078614    3.2416452 
     204.375    2.1866681 0.0043280151 -0.00039895845    3.2472022 -0.00039895845    3.2468032 
     204.875     2.192393 0.0043248338 -0.0042350718    3.2557036 -0.0042350718    3.2514685 
     205.375    2.1943428 0.0043371448 -0.0019701687     3.258599 -0.0019701687    3.2566289 
     205.875     2.198978 0.0043373076 -0.0043418631    3.2654823 -0.0043418631    3.2611404 
     206.375    2.2036282 0.0043400982 -0.006085334    3.2723879 -0.006085334    3.2663025 
     206.875    2.2104756 0.0043343887 -0.012395595    3.2825562 -0.012395595    3.2701606 
     207.375    2.2195826 0.0043386434 -0.020256945    3.2960802 -0.020256945    3.2758233 
     207.875       2.2195 0.0043543408 -0.014970538    3.2959576 -0.014970538     3.280987 
     208.375     2.214754 0.0043749919 -0.0026071071    3.2889097 -0.0026071071    3.2863026 
     208.875    2.2175294 0.0043838614 -0.0017281508    3.2930312 -0.0017281508     3.291303 
     209.375    2.2470263  0.004438633 -0.041355674     3.336834 -0.041355674    3.2954783 
     209.875    2.2365133 0.0043489038 -0.022046041    3.3212223 -0.022046041    3.2991762 
     210.375    2.2456985  0.004371541 -0.030364214    3.3348623 -0.030364214    3.3044981 
     210.875    2.2364507 0.0043878438 -0.010545002    3.3211293 -0.010545002    3.3105843 
     211.375      2.24693 0.0044902876 -0.020731556    3.3366911 -0.020731556    3.3159595 
     211.875    2.2388564 0.0044177844 -0.0038984244    3.3247018 -0.0038984244    3.3208034 
     212.375    2.2504073 0.0043963856 -0.016401438    3.3418549 -0.016401438    3.3254534 
     212.875    2.2600598 0.0044333609 -0.025951143    3.3561888 -0.025951143    3.3302377 
     213.375    2.2496825   0.00443594 -0.0048662727    3.3407784 -0.0048662727    3.3359122 
     213.875    2.2583181 0.0044742987 -0.012867227    3.3536024 -0.012867227    3.3407352 
     214.375    2.2683605 0.0044476683 -0.022658862    3.3685154 -0.022658862    3.3458565 
     214.875      2.25785  0.004462485 -0.0020409512    3.3529073 -0.0020409512    3.3508663 
     215.375    2.2666484 0.0044541411 -0.010435549    3.3659728 -0.010435549    3.3555373 
     215.875     2.265394 0.0044715108 -0.0035626941    3.3641101 -0.0035626941    3.3605474 
     216.375    2.2724825 0.0044644893 -0.009410262    3.3746365 -0.009410262    3.3652262 
     216.875    2.2808077 0.0044664715 -0.016120576    3.3869994 -0.016120576    3.3708788 
     217.375    2.2766128 0.0044909382 -0.0047252481    3.3807701 -0.0047252481    3.3760448 
     217.875    2.2779504 0.0045036128 -0.0017196942    3.3827564 -0.0017196942    3.3810367 
     218.375    2.2841575 0.0045009857 -0.0060967688    3.3919739 -0.0060967688    3.3858772 
     218.875        2.291 0.0044986747 -0.010939071     3.402135 -0.010939071     3.391196 
     219.375    2.2929704 0.0045096802 -0.0088601773     3.405061 -0.0088601773    3.3962009 
     219.875    2.2944168 0.0045154028 -0.0071511786    3.4072089 -0.0071511786    3.4000577 
     220.375    2.3027115 0.0045098325 -0.014310967    3.4195266 -0.014310967    3.4052156 
     220.875    2.3054237 0.0045202739 -0.013447045    3.4235542 -0.013447045    3.4101072 
     221.375    2.3073108  0.004546715 -0.010272332    3.4263565 -0.010272332    3.4160842 
     221.875    2.3130138 0.0047279568 -0.013937767    3.4348254 -0.013937767    3.4208877 
     222.375    2.3147643 0.0045615973 -0.011537682    3.4374249 -0.011537682    3.4258872 
     222.875     2.310892 0.0045737497 -0.00045684028    3.4316746 -0.00045684028    3.4312177 
     223.375    2.3215891 0.0045638979 -0.011504602    3.4475598 -0.011504602    3.4360552 
     223.875    2.3182131 0.0045848772 -0.0013236094    3.4425465 -0.0013236094    3.4412229 
     224.375    2.3218901  0.004589807 -0.0019450761    3.4480068 -0.0019450761    3.4460617 
     224.875    2.3285108 0.0045837181 -0.0072626107    3.4578386 -0.0072626107     3.450576 
     225.375    2.3374423 0.0046366618 -0.015694712    3.4711019 -0.015694712    3.4554072 
     225.875    2.3359559 0.0045923124 -0.0087983096    3.4688945 -0.0087983096    3.4600962 
     226.375     2.350386  0.004581215 -0.025554802    3.4903232 -0.025554802    3.4647684 
     226.875    2.3553822 0.0046218041 -0.028128817    3.4977426 -0.028128817    3.4696138 
     227.375    2.3521425 0.0046013925 -0.018323541    3.4929316 -0.018323541    3.4746081 
     227.875    2.3481964 0.0046261742 -0.0061490348    3.4870716 -0.0061490348    3.4809226 
     228.375    2.3488286 0.0046418194 -0.0022491918    3.4880104 -0.0022491918    3.4857612 
     228.875    2.3615316 0.0046862617 -0.016274336    3.5068745 -0.016274336    3.4906001 
     229.375    2.3602802 0.0046367499 -0.010391369    3.5050161 -0.010391369    3.4946247 
     229.875    2.3620621 0.0046477615 -0.0077945183    3.5076622 -0.0077945183    3.4998677 
     230.375    2.3759928 0.0047514089 -0.023646025    3.5283493 -0.023646025    3.5047032 
     230.875    2.3773635 0.0046279071 -0.021345701    3.5303849 -0.021345701    3.5090392 
     231.375    2.3800194  0.004648267 -0.019642687    3.5343288 -0.019642687    3.5146861 
     231.875    2.3761062 0.0046710436 -0.0091225864    3.5285176 -0.0091225864    3.5193951 
     232.375    2.3753311  0.004692669 -0.0026454689    3.5273667 -0.0026454689    3.5247212 
     232.875    2.3677021 0.0051882542   0.01420516    3.5160376   0.01420516    3.5302427 
     233.375    2.3837175 0.0046991321 -0.0052612621    3.5398205 -0.0052612621    3.5345593 
     233.875    2.3932968   0.00474137 -0.014010005    3.5540457 -0.014010005    3.5400357 
     234.375    2.4084503 0.0047267352 -0.032061052    3.5765487 -0.032061052    3.5444877 
     234.875    2.3942811 0.0047180312 -0.0058479339    3.5555074 -0.0058479339    3.5496594 
     235.375    2.3969154 0.0047293541 -0.0042884317    3.5594194 -0.0042884317     3.555131 
     235.875    2.4025486 0.0047291988 -0.0076560898    3.5677847 -0.0076560898    3.5601286 
     236.375    2.4057181 0.0047334909 -0.007902463    3.5724914 -0.007902463    3.5645889 
     236.875    2.4159311  0.004752632 -0.017598201    3.5876577 -0.017598201    3.5700595 
     237.375    2.4124918  0.004855695 -0.0078189311    3.5825504 -0.0078189311    3.5747315 
     237.875    2.4178367 0.0048284061 -0.011292347    3.5904875 -0.011292347    3.5791951 
     238.375    2.4228898 0.0047971388 -0.013100854    3.5979913 -0.013100854    3.5848904 
     238.875    2.4253116 0.0047821591 -0.011867601    3.6015877 -0.011867601    3.5897201 
     239.375     2.430092  0.004846072 -0.013757297    3.6086866 -0.013757297    3.5949293 
     239.875    2.4256972  0.004794754 -0.0020615836    3.6021603 -0.0020615836    3.6000987 
     240.375    2.4320642 0.0047906494 -0.0066768803    3.6116154 -0.0066768803    3.6049385 
     240.875    2.4417252 0.0047831416 -0.016512491    3.6259619 -0.016512491    3.6094494 
     241.375    2.4473251 0.0048676577  -0.01970694    3.6342777  -0.01970694    3.6145708 
     241.875    2.4475658 0.0048821664 -0.015080346    3.6346352 -0.015080346    3.6195549 
     242.375    2.4417927 0.0048320848 -0.00067308667    3.6260622 -0.00067308667    3.6253891 
     242.875    2.4469304 0.0048302635  -0.00385182    3.6336917  -0.00385182    3.6298398 
     243.375    2.4532837 0.0048295645 -0.0079582841    3.6431262 -0.0079582841    3.6351679 
     243.875    2.4554549 0.0048363629 -0.0067748865    3.6463505 -0.0067748865    3.6395757 
     244.375    2.4702929 0.0048966884  -0.02417233    3.6683849  -0.02417233    3.6442126 
     244.875    2.4790184 0.0049079854 -0.031673045    3.6813423 -0.031673045    3.6496693 
     245.375    2.4696957 0.0048386494 -0.013939166    3.6674982 -0.013939166     3.653559 
     245.875    2.4709161 0.0048551674 -0.010425243    3.6693104 -0.010425243    3.6588852 
     246.375     2.473689 0.0048637279 -0.0090490203    3.6734281 -0.0090490203    3.6643791 
     246.875    2.4819553 0.0049473698 -0.016652835    3.6857035 -0.016652835    3.6690507 
     247.375    2.4826947 0.0048680754  -0.01275305    3.6868017  -0.01275305    3.6740486 
     247.875    2.4868063 0.0048808583 -0.013375217    3.6929073 -0.013375217    3.6795321 
     248.375    2.4904102 0.0049080911 -0.013564588    3.6982592 -0.013564588    3.6846946 
     248.875    2.4912198 0.0049054156 -0.0097652114    3.6994614 -0.0097652114    3.6896962 
     249.375     2.493267 0.0049084145 -0.0079137559    3.7025015 -0.0079137559    3.6945878 
     249.875    2.5034351 0.0049616008 -0.018563385    3.7176011 -0.018563385    3.6990377 
     250.375    2.5028367 0.0049120518 -0.012130325    3.7167125 -0.012130325    3.7045822 
     250.875    2.5013404 0.0049341258 -0.0049065666    3.7144905 -0.0049065666     3.709584 
     251.375    2.5077324 0.0049427469 -0.0089126838    3.7239826 -0.0089126838    3.7150699 
     251.875    2.5135191 0.0049385136 -0.012995138    3.7325758 -0.012995138    3.7195807 
     252.375    2.5140115 0.0049458826 -0.0088905816    3.7333071 -0.0088905816    3.7244165 
     252.875    2.5177638 0.0049503519 -0.0094669657    3.7388793 -0.0094669657    3.7294123 
     253.375    2.5254962 0.0049477001 -0.016598265    3.7503619 -0.016598265    3.7337637 
     253.875      2.52991 0.0051642783 -0.017531024    3.7569163 -0.017531024    3.7393853 
     254.375    2.5255174 0.0049777304 -0.006141715    3.7503933 -0.006141715    3.7442516 
     254.875    2.5286594 0.0049875594 -0.0051533695    3.7550593 -0.0051533695    3.7499059 
     255.375    2.5339495 0.0049902702 -0.0080089825    3.7629151 -0.0080089825    3.7549061 
     255.875    2.5383836 0.0049963412 -0.0097577374    3.7694997 -0.0097577374     3.759742 
     256.375    2.5374736 0.0051546539 -0.0034291658    3.7681482 -0.0034291658    3.7647191 
     256.875    2.5396422 0.0050214125 -0.0017917199    3.7713686 -0.0017917199    3.7695769 
     257.375    2.5461732 0.0050165866 -0.0066513347    3.7810672 -0.0066513347    3.7744159 
     257.875    2.5545344 0.0050355407 -0.014068991    3.7934836 -0.014068991    3.7794147 
     258.375    2.5683747 0.0050900208 -0.030485287    3.8140364 -0.030485287    3.7835511 
     258.875    2.5579161 0.0050283706 -0.0097752194    3.7985053 -0.0097752194    3.7887301 
     259.375    2.5633001 0.0051094736 -0.011644091    3.8065006 -0.011644091    3.7948565 
     259.875    2.5594922  0.005064532 -0.00082435835    3.8008459 -0.00082435835    3.8000215 
     260.375     2.565406 0.0050621608 -0.0047958332    3.8096279 -0.0047958332    3.8048321 
     260.875    2.5707193 0.0050607586 -0.0080109609    3.8175182 -0.0080109609    3.8095073 
     261.375    2.5721051 0.0050756305 -0.0047455588    3.8195761 -0.0047455588    3.8148306 
     261.875    2.5782065 0.0050776673 -0.0090401704    3.8286366 -0.0090401704    3.8195965 
     262.375    2.5866475  0.005114821 -0.017079382    3.8411716 -0.017079382    3.8240922 
     262.875    2.5911742 0.0050858867 -0.018302643    3.8478937 -0.018302643    3.8295911 
     263.375    2.5917549 0.0050817693 -0.014491943    3.8487561 -0.014491943    3.8342641 
     263.875    2.5921978 0.0050985711 -0.010478107    3.8494138 -0.010478107    3.8389357 
     264.375     2.593415 0.0051078411 -0.0074498199    3.8512213 -0.0074498199    3.8437715 
     264.875    2.6032364 0.0051270568 -0.016879872    3.8658061 -0.016879872    3.8489262 
     265.375    2.6130702 0.0051119581 -0.026318938    3.8804092 -0.026318938    3.8540902 
     265.875    2.6140016 0.0051120036 -0.023108094    3.8817924 -0.023108094    3.8586844 
     266.375    2.6213408 0.0051647043 -0.029215471    3.8926911 -0.029215471    3.8634756 
     266.875    2.6073387 0.0051538349 -0.0022292192    3.8718979 -0.0022292192    3.8696687 
     267.375    2.6118466 0.0051568376 -0.0039208538    3.8785922 -0.0039208538    3.8746713 
     267.875    2.6132485 0.0053351292 -0.0011513062     3.880674 -0.0011513062    3.8795227 
     268.375    2.6255563 0.0052875994 -0.014833325    3.8989511 -0.014833325    3.8841178 
     268.875    2.6210706 0.0054322191 -0.0038972678    3.8922898 -0.0038972678    3.8883925 
     269.375     2.629096 0.0051707246 -0.010045117    3.9042075 -0.010045117    3.8941624 
     269.875    2.6311216 0.0051770164 -0.0085690175    3.9072156 -0.0085690175    3.8986466 
     270.375    2.6449709 0.0051937015 -0.024309564    3.9277818 -0.024309564    3.9034723 
     270.875    2.6489275 0.0051709145 -0.025217155    3.9336573 -0.025217155    3.9084401 
     271.375    2.6466057 0.0051914527 -0.016443179    3.9302094 -0.016443179    3.9137662 
     271.875    2.6413655 0.0052148951 -0.0038172898    3.9224277 -0.0038172898    3.9186105 
     272.375    2.6484645 0.0052109603 -0.0090295664    3.9329698 -0.0090295664    3.9239403 
     272.875    2.6626838 0.0052928288  -0.02514005    3.9540854  -0.02514005    3.9289453 
     273.375       2.6658 0.0052027319 -0.025967094     3.958713 -0.025967094     3.932746 
     273.875    2.6672595 0.0054503243 -0.022784347    3.9608804 -0.022784347     3.938096 
     274.375    2.6665753 0.0054207813 -0.016013928    3.9598644 -0.016013928    3.9438504 
     274.875    2.6654853 0.0054556097 -0.0096267705    3.9582457 -0.0096267705    3.9486189 
     275.375    2.6667589 0.0052587683 -0.0058470716    3.9601369 -0.0058470716    3.9542898 
     275.875    2.6776517 0.0052686474  -0.01738975    3.9763128  -0.01738975     3.958923 
     276.375    2.6718592 0.0052758583 -0.0037703092    3.9677109 -0.0037703092    3.9639406 
     276.875    2.6799711 0.0052853072 -0.010989226    3.9797572 -0.010989226    3.9687679 
     277.375    2.6782775 0.0052907709 -0.0031503415     3.977242 -0.0031503415    3.9740917 
     277.875     2.680578 0.0053019587 -0.0014157755    3.9806584 -0.0014157755    3.9792426 
     278.375    2.6841365 0.0053079641 -0.0017011076    3.9859426 -0.0017011076    3.9842415 
     278.875    2.6845559 0.0055635634  0.002402109    3.9865655  0.002402109    3.9889677 
     279.375    2.7064609 0.0054276612 -0.025218093    4.0190944 -0.025218093    3.9938763 
     279.875     2.695509 0.0053227761 -0.0037541437    4.0028308 -0.0037541437    3.9990767 
     280.375    2.6999984  0.005328816 -0.0050912737    4.0094976 -0.0050912737    4.0044063 
     280.875    2.7080935 0.0053158942 -0.012777155    4.0215188 -0.012777155    4.0087416 
     281.375    2.7088159 0.0053329571 -0.0088740008    4.0225916 -0.0088740008    4.0137176 
     281.875    2.7074352  0.005355435 -0.0013399815    4.0205412 -0.0013399815    4.0192013 
     282.375    2.7147782 0.0053531676 -0.0073597887    4.0314456 -0.0073597887    4.0240858 
     282.875    2.7098801 0.0057011678 0.0044935064     4.024172 0.0044935064    4.0286655 
     283.375    2.7221996 0.0053568519 -0.0089339024    4.0424665 -0.0089339024    4.0335325 
     283.875    2.7257926 0.0053734022 -0.0089452261     4.047802 -0.0089452261    4.0388568 
     284.375    2.7250107 0.0053839993 -0.0029401948    4.0466408 -0.0029401948    4.0437006 
     284.875    2.7358899 0.0053971693 -0.013983624    4.0627965 -0.013983624    4.0488129 
     285.375    2.7310587 0.0053997104 -0.0019755945    4.0556222 -0.0019755945    4.0536466 
     285.875    2.7343063 0.0054074888 -0.0016311139    4.0604449 -0.0016311139    4.0588138 
     286.375    2.7436486 0.0053999096 -0.011152248    4.0743181 -0.011152248    4.0631659 
     286.875    2.7515035  0.005562843 -0.017485923    4.0859827 -0.017485923    4.0684968 
     287.375    2.7463439 0.0054210338 -0.0044968294    4.0783206 -0.0044968294    4.0738238 
     287.875    2.7476256 0.0054360728 -0.0010750887     4.080224 -0.0010750887    4.0791489 
     288.375    2.7504889  0.005445968            0     4.084476            0     4.084476 
     288.875     2.756004 0.0054432423 -0.0035913074     4.092666 -0.0035913074    4.0890746 
     289.375    2.7648526 0.0054317557 -0.012218432    4.1058062 -0.012218432    4.0935877 
     289.875     2.764593 0.0054491357 -0.0068277384    4.1054205 -0.0068277384    4.0985928 
     290.375    2.7674385 0.0054574537 -0.0060537703    4.1096462 -0.0060537703    4.1035924 
     290.875    2.7721248 0.0054587535 -0.008436981    4.1166053 -0.008436981    4.1081683 
     291.375    2.7790701 0.0054518405 -0.013936987    4.1269191 -0.013936987    4.1129822 
     291.875    2.7850218 0.0054583586 -0.017768855    4.1357574 -0.017768855    4.1179886 
     292.375    2.7869594 0.0054634511 -0.015502972    4.1386347 -0.015502972    4.1231317 
     292.875    2.7957571 0.0054921305 -0.024402377    4.1516993 -0.024402377    4.1272969 
     293.375    2.7884516   0.00549214 -0.0078977507    4.1408506 -0.0078977507    4.1329529 
     293.875    2.7973512 0.0055613657 -0.016118861    4.1540665 -0.016118861    4.1379476 
     294.375     2.800767  0.005485164 -0.016843277     4.159139 -0.016843277    4.1422957 
     294.875    2.8068775 0.0056207366  -0.01993656     4.168213  -0.01993656    4.1482765 
     295.375    2.8087738 0.0055467196 -0.017489229    4.1710291 -0.017489229    4.1535398 
     295.875    2.8093992 0.0055484908 -0.013347955    4.1719578 -0.013347955    4.1586098 
     296.375    2.8087554 0.0055340145 -0.0075534554    4.1710018 -0.0075534554    4.1634484 
     296.875    2.8157436 0.0055379145 -0.012933084    4.1813793 -0.012933084    4.1684462 
     297.375    2.8162169 0.0055454413 -0.0086333431    4.1820821 -0.0086333431    4.1734488 
     297.875    2.8203633 0.0055487487 -0.010488868    4.1882396 -0.010488868    4.1777507 
     298.375    2.8241792  0.005720945 -0.010679035    4.1939061 -0.010679035     4.183227 
     298.875    2.8391563  0.005666003 -0.028677168    4.2161471 -0.028677168    4.1874699 
     299.375    2.8328814 0.0055668958 -0.013800305    4.2068289 -0.013800305    4.1930286 
     299.875    2.8335455 0.0055751206 -0.0099497532     4.207815 -0.0099497532    4.1978653 
     300.375     2.851323 0.0055865669 -0.031844706    4.2342147 -0.031844706      4.20237 
     300.875    2.8283254 0.0059671682 0.0076157778    4.2000632 0.0076157778     4.207679 
     301.375    2.8609667 0.0056026358  -0.03626643    4.2485356  -0.03626643    4.2122691 
     301.875    2.8486368 0.0055963036 -0.012793237    4.2302257 -0.012793237    4.2174325 
     302.375     2.841791 0.0059262872 0.0030827438    4.2200597 0.0030827438    4.2231425 
     302.875    2.8516964 0.0056222043 -0.0070120375    4.2347692 -0.0070120375    4.2277571 
     303.375    2.8675553 0.0056543581 -0.026087292    4.2583196 -0.026087292    4.2322323 
     303.875    2.8616015 0.0056226225 -0.011920871    4.2494783 -0.011920871    4.2375574 
     304.375    2.8624443  0.005749262 -0.0080106234    4.2507299 -0.0080106234    4.2427192 
     304.875    2.8702799 0.0059553258 -0.014794243    4.2623657 -0.014794243    4.2475715 
     305.375    2.8734359 0.0056468022  -0.01466593    4.2670524  -0.01466593    4.2523864 
     305.875     2.873911 0.0056534169 -0.010217955    4.2677578 -0.010217955    4.2575398 
     306.375    2.8766698 0.0056621823 -0.0089882143    4.2718547 -0.0089882143    4.2628665 
     306.875    2.8835147 0.0056646182 -0.014475796    4.2820193 -0.014475796    4.2675435 
     307.375    2.8887357 0.0057152378 -0.016906032    4.2897726 -0.016906032    4.2728665 
     307.875    2.8894613 0.0057561572 -0.013154748      4.29085 -0.013154748    4.2776953 
     308.375    2.8899417 0.0056915149 -0.0083651475    4.2915635 -0.0083651475    4.2831983 
     308.875    2.8960022 0.0057249561  -0.01231347    4.3005632  -0.01231347    4.2882498 
     309.375    2.8959458   0.00570585 -0.007719189    4.3004795 -0.007719189    4.2927604 
     309.875    2.9020333 0.0057005519 -0.012087594    4.3095195 -0.012087594    4.2974319 
     310.375     2.904172 0.0057134333 -0.010096638    4.3126954 -0.010096638    4.3025988 
     310.875     2.909378 0.0058017443 -0.012490534    4.3204263 -0.012490534    4.3079358 
     311.375    2.9106179 0.0057253876 -0.010039797    4.3222676 -0.010039797    4.3122278 
     311.875    2.9178522 0.0057711013 -0.015427054    4.3330105 -0.015427054    4.3175834 
     312.375    2.9168961 0.0057422825 -0.0089656034    4.3315908 -0.0089656034    4.3226251 
     312.875     2.922918 0.0057482892 -0.013232689    4.3405332 -0.013232689    4.3273006 
     313.375    2.9281898 0.0057548165 -0.015907081    4.3483619 -0.015907081    4.3324548 
     313.875    2.9283136 0.0057714102 -0.010919515    4.3485457 -0.010919515    4.3376262 
     314.375    2.9320777 0.0057760516 -0.011346873    4.3541354 -0.011346873    4.3427885 
     314.875    2.9315461 0.0057832405 -0.0055578123     4.353346 -0.0055578123    4.3477882 
     315.375    2.9380055 0.0057807687 -0.010398108    4.3629382 -0.010398108    4.3525401 
     315.875    2.9370461  0.005799181 -0.0041421186    4.3615134 -0.0041421186    4.3573713 
     316.375    2.9360239  0.006184542 0.0020033441    4.3599955 0.0020033441    4.3619989 
     316.875     2.950248  0.005801893 -0.014341583    4.3811183 -0.014341583    4.3667767 
     317.375    2.9554098 0.0058001402 -0.016019318    4.3887835 -0.016019318    4.3727642 
     317.875    2.9497937  0.005828853 -0.0030044302    4.3804437 -0.0030044302    4.3774392 
     318.375    2.9583869 0.0058287577 -0.010913638    4.3932046 -0.010913638    4.3822909 
     318.875    2.9574846 0.0059701504 -0.0042935241    4.3918647 -0.0042935241    4.3875712 
     319.375    2.9598378 0.0058483529 -0.0030810031    4.3953591 -0.0030810031    4.3922781 
     319.875    2.9675647 0.0058435074  -0.00922377    4.4068336  -0.00922377    4.3976098 
     320.375    2.9677194 0.0058595892 -0.0044520301    4.4070634 -0.0044520301    4.4026113 
     320.875    2.9784613 0.0058659273 -0.015755309     4.423015 -0.015755309    4.4072597 
     321.375    2.9751675 0.0058697762 -0.0055518515    4.4181237 -0.0055518515    4.4125718 
     321.875    2.9887208 0.0058822805 -0.021173701    4.4382504 -0.021173701    4.4170767 
     322.375    2.9850164 0.0058869107 -0.010182298    4.4327494 -0.010182298    4.4225671 
     322.875    2.9903718 0.0058914918 -0.013136488    4.4407022 -0.013136488    4.4275657 
     323.375    2.9994778 0.0058906242 -0.022147662    4.4542246 -0.022147662    4.4320769 
     323.875    2.9969369 0.0058986526 -0.013531734    4.4504513 -0.013531734    4.4369196 
     324.375    3.0065767 0.0059038414 -0.023048216    4.4647664 -0.023048216    4.4417182 
     324.875    3.0036606 0.0059001372 -0.013917102     4.460436 -0.013917102    4.4465189 
     325.375    3.0086255 0.0059138612 -0.016132659    4.4678089 -0.016132659    4.4516762 
     325.875    3.0094257 0.0060199159 -0.012353039    4.4689972 -0.012353039    4.4566441 
     326.375    3.0057742 0.0059476353 -0.00095839271    4.4635746 -0.00095839271    4.4626162 
     326.875    3.0167347 0.0059736299 -0.012405973     4.479851 -0.012405973     4.467445 
     327.375    3.0151596 0.0059483575 -0.005576377     4.477512 -0.005576377    4.4719356 
     327.875    3.0202661 0.0059488162 -0.0083294903    4.4850951 -0.0083294903    4.4767656 
     328.375     3.038498 0.0060538286 -0.031004201    4.5121695 -0.031004201    4.4811653 
     328.875    3.0389126 0.0059642751 -0.026760558    4.5127852 -0.026760558    4.4860247 
     329.375    3.0420838 0.0060638142 -0.026766921    4.5174944 -0.026766921    4.4907275 
     329.875    3.0436124 0.0059617771 -0.023353243    4.5197644 -0.023353243    4.4964111 
     330.375    3.0420776 0.0060159599 -0.015419043    4.5174853 -0.015419043    4.5020662 
     330.875    3.0420273 0.0059987891 -0.010337918    4.5174105 -0.010337918    4.5070726 
     331.375    3.0441872  0.006001156 -0.0085457554     4.520618 -0.0085457554    4.5120723 
     331.875    3.0537523 0.0060545513 -0.018030534    4.5348221 -0.018030534    4.5167916 
     332.375    3.0557852 0.0060009745 -0.016363908    4.5378411 -0.016363908    4.5214771 
     332.875    3.0506605 0.0062849966 -0.0035580867    4.5302309 -0.0035580867    4.5266728 
     333.375    3.0590551 0.0062862825 -0.011624748    4.5426969 -0.011624748    4.5310721 
     333.875    3.0659421 0.0060825821 -0.015923645     4.552924 -0.015923645    4.5370003 
     334.375    3.0669055 0.0060451301 -0.012137151    4.5543547 -0.012137151    4.5422175 
     334.875    3.0782119 0.0060233174 -0.024253475    4.5711447 -0.024253475    4.5468912 
     335.375    3.0769939 0.0060395817 -0.018318761    4.5693359 -0.018318761    4.5510172 
     335.875    3.0826602 0.0060829966 -0.021148803    4.5777504 -0.021148803    4.5566016 
     336.375    3.0801279  0.006100546 -0.012383401      4.57399 -0.012383401    4.5616066 
     336.875    3.0816342 0.0060826181 -0.0089736286    4.5762268 -0.0089736286    4.5672531 
     337.375    3.0854155 0.0060849891 -0.010142292     4.581842 -0.010142292    4.5716997 
     337.875    3.0990917 0.0060869555  -0.02659019    4.6021511  -0.02659019    4.5755609 
     338.375    3.1080587 0.0061427263 -0.034601624    4.6154671 -0.034601624    4.5808655 
     338.875    3.1136202 0.0060578153 -0.038385134     4.623726 -0.038385134    4.5853408 
     339.375    3.1129352 0.0061157252 -0.031877566    4.6227087 -0.031877566    4.5908311 
     339.875    3.1100737 0.0061190247  -0.02230036    4.6184594  -0.02230036     4.596159 
     340.375     3.112608 0.0061574488 -0.021235152    4.6222229 -0.021235152    4.6009877 
     340.875    3.1107292 0.0061239738 -0.013352659    4.6194328 -0.013352659    4.6060802 
     341.375    3.1127703  0.006134649 -0.011056359    4.6224639 -0.011056359    4.6114076 
     341.875    3.1373942 0.0062117618 -0.043923457    4.6590304 -0.043923457    4.6151069 
     342.375    3.1266814 0.0061764298 -0.021906633    4.6431219 -0.021906633    4.6212153 
     342.875    3.1294211 0.0061676763 -0.020953402    4.6471903 -0.020953402    4.6262369 
     343.375    3.1266467 0.0061586627 -0.011831825    4.6430703 -0.011831825    4.6312385 
     343.875    3.1395401 0.0061690274 -0.026466737    4.6622171 -0.026466737    4.6357504 
     344.375     3.150493 0.0062466462 -0.038417589    4.6784821 -0.038417589    4.6400645 
     344.875    3.1407484 0.0061676968  -0.01828625    4.6640114  -0.01828625    4.6457251 
     345.375    3.1400731 0.0061735885 -0.011955074    4.6630085 -0.011955074    4.6510534 
     345.875    3.1494282 0.0062012827 -0.021342978    4.6769008 -0.021342978    4.6555579 
     346.375    3.1422397 0.0062008496 -0.005342147    4.6662259 -0.005342147    4.6608838 
     346.875    3.1463607 0.0062072584 -0.0060287916    4.6723456 -0.0060287916    4.6663168 
     347.375    3.1574721 0.0062148097 -0.018031107     4.688846 -0.018031107    4.6708149 
     347.875    3.1532535 0.0062197164 -0.0066784092    4.6825814 -0.0066784092     4.675903 
     348.375    3.1535293 0.0062377163 -0.0015955025     4.682991 -0.0015955025    4.6813955 
     348.875    3.1591913 0.0062364984 -0.005008523    4.6913992 -0.005008523    4.6863906 
     349.375    3.1669501 0.0062438648 -0.011872796    4.7029208 -0.011872796     4.691048 
     349.875    3.1585904 0.0065308254 0.0057301487    4.6905068 0.0057301487    4.6962369 
     350.375    3.1679947 0.0062593647 -0.0034591207    4.7044721 -0.0034591207     4.701013 
     350.875      3.17753 0.0062889294 -0.012971027    4.7186321 -0.012971027     4.705661 
     351.375    3.1742098 0.0062749465 -0.0025577295    4.7137015 -0.0025577295    4.7111438 
     351.875    3.1822465 0.0063380868  -0.00932799    4.7256361  -0.00932799    4.7163081 
     352.375    3.1865975 0.0062865731 -0.011121446    4.7320972 -0.011121446    4.7209758 
     352.875    3.1905126 0.0063579769 -0.012136476    4.7379112 -0.012136476    4.7257747 
     353.375    3.1922155 0.0062843164 -0.0098171705      4.74044 -0.0098171705    4.7306228 
     353.875    3.1942055 0.0062976285 -0.0072904184    4.7433951 -0.0072904184    4.7361047 
     354.375    3.1932357  0.006320518 -0.00052583435     4.741955 -0.00052583435    4.7414292 
     354.875    3.2035221 0.0063222653 -0.011133599    4.7572303 -0.011133599    4.7460967 
     355.375    3.2018026 0.0063252507 -0.0037402443    4.7546769 -0.0037402443    4.7509366 
     355.875    3.2090497 0.0063267759 -0.0093655983    4.7654388 -0.0093655983    4.7560732 
     356.375    3.2020366 0.0066621986 0.0053277393    4.7550243 0.0053277393     4.760352 
     356.875    3.2190969 0.0063297562 -0.015151517    4.7803589 -0.015151517    4.7652073 
     357.375    3.2130345 0.0065637507 -0.0013020147    4.7713563 -0.0013020147    4.7700542 
     357.875    3.2380703 0.0064172265  -0.03368067    4.8085343  -0.03368067    4.7748537 
     358.375    3.2249773 0.0063519036 -0.008904394    4.7890913 -0.008904394    4.7801869 
     358.875    3.2391377 0.0063512359 -0.025488191    4.8101195 -0.025488191    4.7846313 
     359.375    3.2217329 0.0066286258 0.0056893552    4.7842734 0.0056893552    4.7899627 
     359.875    3.2324128 0.0063808563 -0.0050075954    4.8001331 -0.0050075954    4.7951255 
     360.375    3.2358416 0.0063880758  -0.00493567    4.8052247  -0.00493567    4.8002891 
     360.875    3.2236821 0.0067569429  0.017011239    4.7871679  0.017011239    4.8041791 
     361.375    3.2495894 0.0065849881 -0.015325248    4.8256403 -0.015325248    4.8103151 
     361.875     3.239182  0.006687825 0.0050563652    4.8101853 0.0050563652    4.8152417 
     362.375    3.2478538 0.0064203472 -0.0026815287    4.8230629 -0.0026815287    4.8203814 
     362.875    3.2526879 0.0064232496 -0.0045421182    4.8302415 -0.0045421182    4.8256994 
     363.375    3.2566862  0.006547982 -0.0056455116    4.8361789 -0.0056455116    4.8305334 
     363.875    3.2482022  0.006735166  0.011441603    4.8235803  0.011441603    4.8350219 
     364.375    3.2678356 0.0064438548 -0.012439336    4.8527359 -0.012439336    4.8402965 
     364.875     3.267587 0.0064444135 -0.0070692297    4.8523667 -0.0070692297    4.8452975 
     365.375    3.2683977 0.0064578298 -0.0034737974    4.8535707 -0.0034737974    4.8500969 
     365.875    3.2859919 0.0065246737 -0.024832446     4.879698 -0.024832446    4.8548656 
     366.375    3.2812546 0.0065068106 -0.012617573    4.8726631 -0.012617573    4.8600455 
     366.875    3.2848154 0.0065316813 -0.013088559    4.8779509 -0.013088559    4.8648623 
     367.375    3.2934138 0.0064934668 -0.021210734    4.8907195 -0.021210734    4.8695088 
     367.875    3.2860844 0.0064876761 -0.0048260839    4.8798353 -0.0048260839    4.8750093 
     368.375    3.2937661 0.0064930018 -0.011424727    4.8912427 -0.011424727     4.879818 
     368.875    3.2952101 0.0066895657 -0.0082389713     4.893387 -0.0082389713     4.885148 
     369.375    3.2974646 0.0065039088 -0.0068535785    4.8967349 -0.0068535785    4.8898814 
     369.875    3.3004846 0.0065085448 -0.0068347455    4.9012197 -0.0068347455     4.894385 
     370.375     3.315737 0.0064962399  -0.02492662    4.9238694  -0.02492662    4.8989428 
     370.875    3.3071848 0.0065237435 -0.0065760218    4.9111695 -0.0065760218    4.9045935 
     371.375    3.3075046 0.0065413831 -0.0018848249    4.9116443 -0.0018848249    4.9097595 
     371.875    3.3238792 0.0065940488  -0.02208202    4.9359606  -0.02208202    4.9138786 
     372.375    3.3295739 0.0065837443 -0.024841931    4.9444172 -0.024841931    4.9195752 
     372.875    3.3288231 0.0065316117 -0.019537828    4.9433022 -0.019537828    4.9237644 
     373.375    3.3327065 0.0066751556 -0.019988771    4.9490691 -0.019988771    4.9290803 
     373.875    3.3359089 0.0065427414  -0.01997389    4.9538247  -0.01997389    4.9338508 
     374.375     3.338764 0.0065447381 -0.018911778    4.9580645 -0.018911778    4.9391527 
     374.875    3.3368114 0.0065651186 -0.011161895     4.955165 -0.011161895    4.9440031 
     375.375      3.34379 0.0065667501 -0.016565182    4.9655281 -0.016565182    4.9489629 
     375.875    3.3444353 0.0065849937 -0.012041804    4.9664865 -0.012041804    4.9544447 
     376.375    3.3456419 0.0065903788 -0.0091726108    4.9682782 -0.0091726108    4.9591056 
     376.875    3.3439758 0.0068094209 -0.0017450356     4.965804 -0.0017450356     4.964059 
     377.375    3.3512938 0.0066125017 -0.0069748588    4.9766714 -0.0069748588    4.9696965 
     377.875    3.3609564 0.0066865994 -0.016716194    4.9910202 -0.016716194    4.9743041 
     378.375     3.360539 0.0066249447 -0.011236347    4.9904004 -0.011236347    4.9791641 
     378.875    3.3598661 0.0066313945 -0.0053843721    4.9894012 -0.0053843721    4.9840168 
     379.375     3.366886 0.0066359242 -0.010404403    4.9998257 -0.010404403    4.9894213 
     379.875      3.36697 0.0066452421 -0.0055371226    4.9999505 -0.0055371226    4.9944134 
     380.375    3.3737197 0.0066441714 -0.010584617    5.0099737 -0.010584617    4.9993891 
     380.875    3.3784861 0.0066469429 -0.012513379    5.0170518 -0.012513379    5.0045384 
     381.375     3.384541 0.0066764567 -0.016173677    5.0260434 -0.016173677    5.0098698 
     381.875    3.3828159 0.0066675509 -0.0087750083    5.0234816 -0.0087750083    5.0147066 
     382.375    3.3811791 0.0066887784 -0.0015046129     5.021051 -0.0015046129    5.0195463 
     382.875    3.3848083 0.0066937997 -0.0020504961    5.0264403 -0.0020504961    5.0243898 
     383.375    3.3881992 0.0067016896 -0.0017713464    5.0314759 -0.0017713464    5.0297045 
     383.875    3.3997798 0.0066735469 -0.015528098    5.0486731 -0.015528098     5.033145 
     384.375    3.4025688 0.0066848461 -0.014347527    5.0528147 -0.014347527    5.0384672 
     384.875    3.4084873 0.0066929413 -0.017509935    5.0616037 -0.017509935    5.0440938 
     385.375    3.4021302 0.0067269335 -0.0024145486    5.0521633 -0.0024145486    5.0497487 
     385.875    3.4065987 0.0067289003 -0.0042182702     5.058799 -0.0042182702    5.0545807 
     386.375     3.411043 0.0067307419 -0.0060243329    5.0653989 -0.0060243329    5.0593745 
     386.875    3.4227103 0.0067425924 -0.019107529    5.0827248 -0.019107529    5.0636173 
     387.375    3.4261389 0.0067259185 -0.019521418    5.0878163 -0.019521418    5.0682949 
     387.875    3.4299382 0.0067500814  -0.02000228    5.0934582  -0.02000228     5.073456 
     388.375    3.4301369 0.0067515097 -0.014968456    5.0937533 -0.014968456    5.0787849 
     388.875    3.4417693 0.0067352707 -0.026904989    5.1110274 -0.026904989    5.0841225 
     389.375    3.4330043 0.0067753788 -0.0084602301    5.0980114 -0.0084602301    5.0895512 
     389.875    3.4322253 0.0067869618 -0.0023068446    5.0968546 -0.0023068446    5.0945478 
     390.375    3.4388821 0.0067821461 -0.0077065079    5.1067399 -0.0077065079    5.0990334 
     390.875    3.4397328  0.006796408 -0.0036974398    5.1080032 -0.0036974398    5.1043058 
     391.375    3.4457413 0.0067963693 -0.0077863084    5.1169259 -0.0077863084    5.1091396 
     391.875    3.4455144 0.0068103866 -0.0029927363    5.1165889 -0.0029927363    5.1135961 
     392.375     3.451189 0.0068140379 -0.0057680268    5.1250157 -0.0057680268    5.1192477 
     392.875     3.441996 0.0071529338   0.01194867    5.1113641   0.01194867    5.1233127 
     393.375    3.4664489 0.0069641163 -0.019564178    5.1476766 -0.019564178    5.1281124 
     393.875    3.4727352 0.0069320764 -0.024224087    5.1570118 -0.024224087    5.1327877 
     394.375    3.4745862 0.0068424438 -0.021988522    5.1597605 -0.021988522    5.1377719 
     394.875    3.4732793 0.0068246835  -0.01511871    5.1578197  -0.01511871     5.142701 
     395.375    3.4791531 0.0068388366 -0.018379476    5.1665424 -0.018379476    5.1481629 
     395.875    3.4745628 0.0068568209 -0.0060783289    5.1597257 -0.0060783289    5.1536474 
     396.375    3.4747057  0.006874154 -0.0014561036     5.159938 -0.0014561036    5.1584819 
     396.875    3.4799081 0.0068718893 -0.0046783818    5.1676635 -0.0046783818    5.1629851 
     397.375    3.4988901 0.0070874655  -0.02828811    5.1958518  -0.02828811    5.1675637 
     397.875    3.4859976 0.0068870717 -0.0038839436    5.1767064 -0.0038839436    5.1728225 
     398.375    3.4956429 0.0068714415 -0.013695694    5.1910297 -0.013695694     5.177334 
     398.875    3.5012638 0.0068886066 -0.016389658    5.1993768 -0.016389658    5.1829872 
     399.375    3.4968089 0.0069053984 -0.0047759174    5.1927613 -0.0047759174    5.1879853 
     399.875    3.5090679 0.0069081041 -0.018222703    5.2109658 -0.018222703    5.1927431 
     400.375    3.5134354 0.0070516173 -0.020308921    5.2174516 -0.020308921    5.1971427 
     400.875    3.5053016 0.0069299142 -0.0027051889    5.2053729 -0.0027051889    5.2026677 
     401.375    3.5192662 0.0070400335 -0.018374673    5.2261103 -0.018374673    5.2077356 
     401.875    3.5119115 0.0069444256 -0.0023664064    5.2151886 -0.0023664064    5.2128222 
     402.375    3.5215683 0.0069488059   -0.0122864     5.229529   -0.0122864    5.2172426 
     402.875    3.5222622 0.0069459264 -0.0081551983    5.2305594 -0.0081551983    5.2224042 
     403.375    3.5212471 0.0069662291 -0.0014828514    5.2290519 -0.0014828514     5.227569 
     403.875    3.5303104 0.0069520462 -0.010693626    5.2425109 -0.010693626    5.2318173 
     404.375     3.532567 0.0069585208 -0.0096066444     5.245862 -0.0096066444    5.2362554 
     404.875    3.5391684 0.0070927306 -0.014119067    5.2556651 -0.014119067    5.2415461 
     405.375     3.540102 0.0070457463 -0.010556191    5.2570514 -0.010556191    5.2464952 
     405.875     3.538188 0.0069991646 -0.0016636151    5.2542092 -0.0016636151    5.2525456 
     406.375    3.5500433 0.0069716394 -0.015855039    5.2718144 -0.015855039    5.2559593 
     406.875    3.5567121 0.0069781513 -0.019938735    5.2817174 -0.019938735    5.2617787 
     407.375    3.5494111 0.0070098001 -0.0045927771    5.2708755 -0.0045927771    5.2662828 
     407.875    3.5537013 0.0070153349 -0.0055197507    5.2772464 -0.0055197507    5.2717267 
     408.375    3.5600464 0.0070178037 -0.0097892989    5.2866689 -0.0097892989    5.2768796 
     408.875    3.5628647 0.0070220705 -0.0089656683    5.2908541 -0.0089656683    5.2818885 
     409.375    3.5725954 0.0070557604  -0.01915438    5.3053041  -0.01915438    5.2861497 
     409.875    3.5672626 0.0070410103 -0.0057555707     5.297385 -0.0057555707    5.2916294 
     410.375    3.5705214 0.0070464551 -0.0060815822    5.3022242 -0.0060815822    5.2961427 
     410.875    3.5748006  0.007050693 -0.0071706743    5.3085789 -0.0071706743    5.3014082 
     411.375    3.5771519 0.0070625431 -0.0054956667    5.3120706 -0.0054956667    5.3065749 
     411.875    3.5818046 0.0070673847 -0.0070048723    5.3189798 -0.0070048723    5.3119749 
     412.375    3.5915287 0.0070885897 -0.017117521    5.3334201 -0.017117521    5.3163026 
     412.875    3.5926801 0.0070725574 -0.013317404    5.3351299 -0.013317404    5.3218125 
     413.375    3.5878005 0.0070989172 -0.0012405291    5.3278837 -0.0012405291    5.3266432 
     413.875    3.5967736 0.0071575994 -0.0092547193    5.3412088 -0.0092547193    5.3319541 
     414.375    3.6005244  0.007096723 -0.010337299    5.3467788 -0.010337299    5.3364415 
     414.875    3.6037244 0.0071049969 -0.0099298932    5.3515307 -0.0099298932    5.3416008 
     415.375    3.6044648 0.0071126537 -0.006290165    5.3526302 -0.006290165    5.3463401 
     415.875    3.6118061 0.0071589859 -0.012249583    5.3635321 -0.012249583    5.3512825 
     416.375    3.6087844 0.0071339084 -0.0029060452    5.3590449 -0.0029060452    5.3561389 
     416.875    3.6066577 0.0073750448 0.0056024715    5.3558867 0.0056024715    5.3614892 
     417.375    3.6190548 0.0071359719 -0.0083178418    5.3742964 -0.0083178418    5.3659786 
     417.875    3.6230135 0.0071409743 -0.009281036     5.380175 -0.009281036     5.370894 
     418.375    3.6280893  0.007137825 -0.012512752    5.3877126 -0.012512752    5.3751998 
     418.875    3.6292725 0.0071560137 -0.0081361625    5.3894697 -0.0081361625    5.3813336 
     419.375    3.6368237 0.0071501755 -0.014672981    5.4006832 -0.014672981    5.3860102 
     419.875    3.6440039 0.0071458867 -0.020822372    5.4113458 -0.020822372    5.3905234 
     420.375    3.6456156 0.0071740652 -0.017892076    5.4137392 -0.017892076    5.3958472 
     420.875    3.6477609 0.0071780122 -0.015814612    5.4169249 -0.015814612    5.4011103 
     421.375    3.6471209 0.0071840188 -0.010025471    5.4159746 -0.010025471    5.4059491 
     421.875    3.6549197 0.0071925211 -0.016615885    5.4275557 -0.016615885    5.4109398 
     422.375    3.6515452 0.0072060999 -0.006300074    5.4225446 -0.006300074    5.4162445 
     422.875    3.6579704 0.0072041032 -0.011203872     5.432086 -0.011203872    5.4208821 
     423.375    3.6555969 0.0072287739 -0.0023668383    5.4285614 -0.0023668383    5.4261946 
     423.875    3.6600531  0.007233523 -0.0036640601    5.4351788 -0.0036640601    5.4315148 
     424.375     3.663352 0.0072378893 -0.0040630591    5.4400777 -0.0040630591    5.4360146 
     424.875    3.6663106  0.007246437 -0.0032885332    5.4444713 -0.0032885332    5.4411828 
     425.375    3.6706183 0.0072517679 -0.0045163208    5.4508682 -0.0045163208    5.4463519 
     425.875    3.6716805 0.0072662426 -0.00092893622    5.4524456 -0.00092893622    5.4515166 
     426.375    3.6818399 0.0073365888 -0.011382852    5.4675322 -0.011382852    5.4561494 
     426.875    3.6843022 0.0072607398 -0.010319129    5.4711888 -0.010319129    5.4608697 
     427.375    3.6888121 0.0072560252 -0.012901786    5.4778859 -0.012901786    5.4649842 
     427.875     3.690241 0.0072764857 -0.0092118665    5.4800078 -0.0092118665    5.4707959 
     428.375     3.699385 0.0074841855 -0.018147113    5.4935868 -0.018147113    5.4754397 
     428.875    3.7067737 0.0072728121 -0.024443691    5.5045589 -0.024443691    5.4801152 
     429.375    3.7084451 0.0072673832 -0.022083648    5.5070409 -0.022083648    5.4849573 
     429.875    3.7002181 0.0073092429 -0.0043740972    5.4948239 -0.0043740972    5.4904498 
     430.375    3.7092966 0.0073386175 -0.012855393    5.5083055 -0.012855393    5.4954501 
     430.875    3.7129674 0.0074130203 -0.013977354    5.5137566 -0.013977354    5.4997793 
     431.375    3.7083935  0.007339725 -0.00072831599    5.5069643 -0.00072831599     5.506236 
     431.875     3.712944 0.0073404263 -0.0028722726    5.5137219 -0.0028722726    5.5108496 
     432.375    3.7221568 0.0073646436 -0.011723832    5.5274029 -0.011723832    5.5156791 
     432.875    3.7196635 0.0073530662 -0.003017214    5.5237002 -0.003017214     5.520683 
     433.375    3.7333014 0.0073607311 -0.018866237    5.5439526 -0.018866237    5.5250864 
     433.875    3.7252862 0.0073699084 -0.0015795626    5.5320499 -0.0015795626    5.5304704 
     434.375    3.7291655 0.0073738264 -0.0025298623    5.5378107 -0.0025298623    5.5352809 
     434.875     3.742344  0.007353855 -0.017543973    5.5573809 -0.017543973    5.5398369 
     435.375    3.7431254 0.0074272127 -0.013727511    5.5585412 -0.013727511    5.5448137 
     435.875     3.738218 0.0073979498 -0.00093813308    5.5512537 -0.00093813308    5.5503155 
     436.375    3.7447812 0.0073891789 -0.0067242904    5.5610001 -0.0067242904    5.5542758 
     436.875    3.7499984  0.007389542 -0.0096820497    5.5687477 -0.0096820497    5.5590656 
     437.375    3.7528619  0.007397236 -0.0091773244    5.5729999 -0.0091773244    5.5638226 
     437.875    3.7621004 0.0073944396 -0.018343416    5.5867191 -0.018343416    5.5683756 
     438.375     3.747488 0.0077342359 0.0088523377    5.5650196 0.0088523377     5.573872 
     438.875    3.6893018 0.0085586729    0.1002652    5.4786132    0.1002652    5.5788784 
     439.375    3.7648526 0.0075956742 -0.0075029559    5.5908061 -0.0075029559    5.5833032 
     439.875    3.7666887 0.0074413924 -0.0044554485    5.5935327 -0.0044554485    5.5890773 
     440.375    3.7758661 0.0074249182  -0.01375609    5.6071612  -0.01375609    5.5934051 
     440.875    3.7779705  0.007436899 -0.011881321    5.6102862 -0.011881321    5.5984049 
     441.375    3.7889067  0.007440283  -0.02330922    5.6265265  -0.02330922    5.6032173 
     441.875    3.7948812 0.0074650963 -0.027291464    5.6353985 -0.027291464    5.6081071 
     442.375    3.7835705 0.0074723423 -0.0049956662    5.6186022 -0.0049956662    5.6136065 
     442.875    3.7891238 0.0074792062 -0.0079609365    5.6268488 -0.0079609365    5.6188878 
     443.375    3.8004252 0.0074937681   -0.0199325    5.6436315   -0.0199325     5.623699 
     443.875    3.7921816 0.0077439513 -0.0027795774    5.6313897 -0.0027795774    5.6286101 
     444.375    3.7996316 0.0075867842 -0.0087738831     5.642453 -0.0087738831    5.6336791 
     444.875    3.8008191 0.0075043851 -0.0055273173    5.6442164 -0.0055273173    5.6386891 
     445.375    3.8043167 0.0075105326 -0.0057775204    5.6494103 -0.0057775204    5.6436328 
     445.875    3.8148507 0.0075239578 -0.017141358    5.6650533 -0.017141358    5.6479119 
     446.375    3.8172795  0.007504248 -0.015585576      5.66866 -0.015585576    5.6530744 
[...]
     454.875    3.8703117 0.0076286702 -0.010206361    5.7474129 -0.010206361    5.7372066 
     455.375    3.8703633 0.0076459862 -0.0046317687    5.7474894 -0.0046317687    5.7428577 
     455.875    3.8778837 0.0076673877 -0.010851538    5.7586573 -0.010851538    5.7478057 
     456.375    3.8833299  0.007690704 -0.014121733    5.7667449 -0.014121733    5.7526232 
     456.875    3.8778453  0.007675455 -0.00067355458    5.7586002 -0.00067355458    5.7579267 
     457.375    3.8820275 0.0076766919 -0.0024748779    5.7648108 -0.0024748779     5.762336 
     457.875    3.8976008 0.0076660697 -0.021118044    5.7879372 -0.021118044    5.7668191 
     458.375    3.8973701 0.0076927846 -0.015612836    5.7875947 -0.015612836    5.7719818 
     458.875    3.9059995 0.0076832732  -0.02327771    5.8004093  -0.02327771    5.7771316 
     459.375    3.9067882 0.0077120676 -0.019109313    5.8015804 -0.019109313    5.7824711 
     459.875    3.8998949 0.0077068542  -0.00387525    5.7913439  -0.00387525    5.7874686 
     460.375     3.903815 0.0077101145 -0.0050169564    5.7971653 -0.0050169564    5.7921483 
     460.875    3.9101527 0.0079403904 -0.009830719    5.8065768 -0.009830719    5.7967461 
     461.375    3.9081395 0.0077347903 -0.00084170238    5.8035871 -0.00084170238    5.8027454 
     461.875    3.9171311 0.0077246657 -0.0095206569    5.8169398 -0.0095206569    5.8074191 
     462.375    3.9237819 0.0077208029 -0.014561758    5.8268161 -0.014561758    5.8122544 
     462.875    3.9183967 0.0077522432 -0.0015610016    5.8188191 -0.0015610016    5.8172581 
     463.375    3.9217697 0.0077608506 -0.0010798521    5.8238279 -0.0010798521    5.8227481 
     463.875    3.9276687  0.007755662 -0.0055480213    5.8325881 -0.0055480213    5.8270401 
     464.375    3.9370525 0.0077583445 -0.014324097    5.8465229 -0.014324097    5.8321988 
     464.875    3.9230018 0.0081167815  0.011201381    5.8256576  0.011201381     5.836859 
     465.375     3.945931 0.0077720642 -0.017714757    5.8597075 -0.017714757    5.8419927 
     465.875    3.9478885 0.0078105404 -0.015926436    5.8626144 -0.015926436    5.8466879 
     466.375    3.9525969 0.0078054649 -0.017856155    5.8696064 -0.017856155    5.8517503 
     466.875    3.9467717 0.0077971794 -0.0045384815     5.860956 -0.0045384815    5.8564175 
     467.375    3.9505302 0.0078025649 -0.0051595078    5.8665374 -0.0051595078    5.8613779 
     467.875    3.9177717 0.0085217764  0.048139938     5.817891  0.048139938    5.8660309 
     468.375    3.9671427 0.0077856335 -0.020578003    5.8912069 -0.020578003    5.8706289 
     468.875    3.9641859 0.0078254399 -0.011020851     5.886816 -0.011020851    5.8757952 
     469.375     3.965809 0.0078216718 -0.0084990682    5.8892264 -0.0084990682    5.8807273 
     469.875    3.9680584 0.0078296929 -0.0070076759    5.8925668 -0.0070076759    5.8855591 
     470.375     3.969524 0.0078430746 -0.0042197923    5.8947432 -0.0042197923    5.8905234 
     470.875    3.9792409 0.0078395624 -0.013153624    5.9091727 -0.013153624    5.8960191 
     471.375    3.9770201 0.0078552327 -0.0050224055    5.9058748 -0.0050224055    5.9008524 
     471.875    3.9849373 0.0078511068 -0.011908592    5.9176319 -0.011908592    5.9057233 
     472.375    3.9873071 0.0078643991 -0.010262078     5.921151 -0.010262078    5.9108889 
     472.875    3.9837346 0.0080799957 -0.0006769205    5.9158459 -0.0006769205    5.9151689 
     473.375    3.9958226 0.0078927423 -0.012777847    5.9337966 -0.012777847    5.9210187 
     473.875    4.0052315 0.0078744605 -0.022498418    5.9477687 -0.022498418    5.9252703 
     474.375     3.999959 0.0078882389 -0.0095971096     5.939939 -0.0095971096    5.9303419 
     474.875    4.0054328 0.0078849512 -0.013284254    5.9480677 -0.013284254    5.9347834 
     475.375    4.0059828 0.0080140818 -0.0086492948    5.9488845 -0.0086492948    5.9402352 
     475.875    4.0066548 0.0079152634 -0.0046374301    5.9498824 -0.0046374301    5.9452449 
     476.375    4.0100404 0.0079254755 -0.0040137152      5.95491 -0.0040137152    5.9508963 
     476.875    4.0115479 0.0079379824 -0.0012523871    5.9571486 -0.0012523871    5.9558962 
     477.375    4.0191713 0.0079349978 -0.0077356585    5.9684693 -0.0077356585    5.9607336 
     477.875    4.0270708 0.0080476456 -0.014845102    5.9802002 -0.014845102    5.9653551 
     478.375    4.0289121 0.0079465044 -0.012715859    5.9829345 -0.012715859    5.9702186 
     478.875    4.0381926 0.0079221093 -0.022804737     5.996716 -0.022804737    5.9739113 
     479.375    4.0310696 0.0079521377 -0.0075816302    5.9861383 -0.0075816302    5.9785567 
     479.875    4.0448155 0.0081088711 -0.023112032     6.006551 -0.023112032     5.983439 
     480.375    4.0381424 0.0081607058 -0.0087956411    5.9966414 -0.0087956411    5.9878458 
     480.875    4.0403471 0.0079746574 -0.0065211838    5.9999154 -0.0065211838    5.9933942 
     481.375    4.0566789 0.0080060708 -0.025979994    6.0241682 -0.025979994    5.9981882 
     481.875     4.046675 0.0079946059 -0.0049606539    6.0093124 -0.0049606539    6.0043518 
     482.375    4.0549601 0.0080020817 -0.013236186    6.0216157 -0.013236186    6.0083795 
     482.875    4.0541721 0.0080007748    -0.006903    6.0204455    -0.006903    6.0135425 
     483.375    4.0608957 0.0080043275 -0.011242052    6.0304301 -0.011242052     6.019188 
     483.875    4.0668723 0.0081404048 -0.015479391    6.0393053 -0.015479391    6.0238259 
     484.375    4.0655758 0.0080156057 -0.0091118603      6.03738 -0.0091118603    6.0282682 
     484.875    4.0649951  0.008036923 -0.0029917461    6.0365178 -0.0029917461     6.033526 
     485.375    4.0680177 0.0080455398 -0.0023182931    6.0410063 -0.0023182931     6.038688 
     485.875    4.0748686 0.0080452086 -0.0070994558    6.0511799 -0.0070994558    6.0440804 
     486.375    4.0738108 0.0080627578 -0.00085156284    6.0496091 -0.00085156284    6.0487575 
     486.875     4.079544 0.0080607564 -0.0045269696    6.0581229 -0.0045269696    6.0535959 
     487.375    4.0864405 0.0080594079 -0.0094379317    6.0683641 -0.0094379317    6.0589262 
     487.875    4.0871718 0.0080739051 -0.0055233066    6.0694501 -0.0055233066    6.0639268 
     488.375    4.0937024  0.008098463 -0.010354251     6.079148 -0.010354251    6.0687938 
     488.875    4.0908969 0.0080966941 -0.00083879778    6.0749819 -0.00083879778    6.0741431 
     489.375    4.0963342 0.0080921195 -0.004895544    6.0830563 -0.004895544    6.0781608 
     489.875     4.100061 0.0080992585 -0.0053258664    6.0885906 -0.0053258664    6.0832647 
     490.375    4.1015938 0.0081108937 -0.0026649706    6.0908668 -0.0026649706    6.0882018 
     490.875    4.1122534  0.008203559 -0.014003991    6.1066963 -0.014003991    6.0926923 
     491.375    4.1236536  0.008227434 -0.026499575    6.1236256 -0.026499575     6.097126 
     491.875    4.1132952 0.0081190011 -0.0066081418    6.1082434 -0.0066081418    6.1016353 
     492.375    4.1234879 0.0081080462 -0.016446045    6.1233796 -0.016446045    6.1069335 
     492.875    4.1194723 0.0081389831 -0.0046695553    6.1174164 -0.0046695553    6.1127468 
     493.375    4.1227249 0.0081446447 -0.0048176849    6.1222465 -0.0048176849    6.1174288 
     493.875    4.1335638 0.0081477762  -0.01625302    6.1383422  -0.01625302    6.1220892 
     494.375    4.1268353 0.0081693856 -0.00043953652    6.1283505 -0.00043953652    6.1279109 
     494.875    4.1367716 0.0081691301 -0.010694005    6.1431058 -0.010694005    6.1324118 
     495.375    4.1386827 0.0081607505 -0.0090660435    6.1459438 -0.0090660435    6.1368778 
     495.875    4.1441215 0.0081838101 -0.011577757    6.1540204 -0.011577757    6.1424427 
     496.375    4.1436146 0.0081819679 -0.0060644428    6.1532677 -0.0060644428    6.1472032 
     496.875    4.1478716 0.0081832726 -0.0080890125    6.1595893 -0.0080890125    6.1515003 
     497.375    4.1488898 0.0083340201 -0.0045488436    6.1611014 -0.0045488436    6.1565525 
     497.875    4.1563056 0.0082716357 -0.010634733    6.1721138 -0.010634733    6.1614791 
     498.375     4.168909  0.008228902 -0.024101256    6.1908299 -0.024101256    6.1667286 
     498.875    4.1590717 0.0082160875 -0.0050022871    6.1762215 -0.0050022871    6.1712192 
     499.375    4.1699315 0.0082814279 -0.016273328    6.1923483 -0.016273328     6.176075 
     499.875    4.1671766 0.0082266483 -0.0067103011    6.1882572 -0.0067103011    6.1815469 
     500.375    4.1729809 0.0082332154 -0.010752506    6.1968767 -0.010752506    6.1861242 
     500.875    4.1707651 0.0082476198 -0.0026539131    6.1935861 -0.0026539131    6.1909322 
     501.375    4.1791258 0.0082380155 -0.010661347    6.2060018 -0.010661347    6.1953405 
     501.875    4.1794491 0.0085048576 -0.0063590268    6.2064819 -0.0063590268    6.2001229 
     502.375    4.1832658 0.0082575906 -0.0067233018    6.2121497 -0.0067233018    6.2054264 
     502.875    4.1872914 0.0082628638 -0.0075056414    6.2181277 -0.0075056414    6.2106221 
     503.375    4.1914616 0.0082712804 -0.0088619623    6.2243204 -0.0088619623    6.2154585 
     503.875    4.1914988 0.0082854048 -0.0035909401    6.2243758 -0.0035909401    6.2207848 
     504.375    4.1940354 0.0082943385 -0.0025151701    6.2281425 -0.0025151701    6.2256274 
     504.875    4.1968057 0.0083032619 -0.001618652    6.2322564 -0.001618652    6.2306378 
     505.375     4.200571 0.0083090953 -0.0020475166    6.2378479 -0.0020475166    6.2358004 
     505.875    4.2112436 0.0083514623 -0.012915837    6.2536967 -0.012915837    6.2407808 
     506.375    4.2112967 0.0083077735 -0.0081578892    6.2537756 -0.0081578892    6.2456177 
     506.875    4.2119145 0.0083210307 -0.0048278484     6.254693 -0.0048278484    6.2498652 
     507.375    4.2186368 0.0083233004 -0.0096527604    6.2646756 -0.0096527604    6.2550229 
     507.875    4.2227192 0.0084538392 -0.012143683    6.2707379 -0.012143683    6.2585943 
     508.375    4.2273166 0.0083575898  -0.01331991    6.2775651  -0.01331991    6.2642452 
     508.875    4.2236495 0.0083543241 -0.0022065656    6.2721194 -0.0022065656    6.2699129 
     509.375    4.2372895 0.0083333488 -0.018118086    6.2923749 -0.018118086    6.2742568 
     509.875    4.2400695 0.0083404155 -0.017761271    6.2965032 -0.017761271     6.278742 
     510.375    4.2353391  0.008364986 -0.0054209061    6.2894786 -0.0054209061    6.2840577 
     510.875     4.243691 0.0083914179 -0.012425341    6.3018811 -0.012425341    6.2894557 
     511.375    4.2400214 0.0083890074 -0.0015969612    6.2964317 -0.0015969612    6.2948348 
     511.875    4.2429793 0.0083978843 -0.00082126477    6.3008242 -0.00082126477    6.3000029 
     512.375    4.2532429  0.008403483 -0.011771245    6.3160657 -0.011771245    6.3042945 
     512.875    4.2535719 0.0083945951 -0.0072535852    6.3165543 -0.0072535852    6.3093008 
     513.375    4.2667659 0.0084009188 -0.022417714    6.3361473 -0.022417714    6.3137296 
     513.875    4.2588984 0.0084141388 -0.0051557635    6.3244641 -0.0051557635    6.3193083 
     514.375    4.2604357 0.0084260771 -0.0024500474    6.3267471 -0.0024500474     6.324297 
     514.875    4.2742724 0.0085933823 -0.018529337    6.3472944 -0.018529337    6.3287651 
     515.375    4.2769102 0.0084180219 -0.017270006    6.3512117 -0.017270006    6.3339417 
     515.875    4.2701094 0.0084489117 -0.0015178054    6.3411124 -0.0015178054    6.3395946 
     516.375     4.283696 0.0084537536 -0.017520439    6.3612886 -0.017520439    6.3437682 
     516.875     4.277666 0.0084547446 -0.0038373181     6.352334 -0.0038373181    6.3484967 
     517.375    4.2867894 0.0084441029  -0.01228576    6.3658823  -0.01228576    6.3535965 
     517.875    4.2899293 0.0084488696 -0.012107906     6.370545 -0.012107906    6.3584371 
     518.375    4.2937002 0.0084775384 -0.012226403    6.3761448 -0.012226403    6.3639184 
     518.875    4.2914363 0.0084822204 -0.0038675893    6.3727829 -0.0038675893    6.3689153 
     519.375    4.2971494 0.0084797152 -0.007661383    6.3812668 -0.007661383    6.3736054 
     519.875    4.2975894 0.0084962217 -0.0033504255    6.3819202 -0.0033504255    6.3785698 
     520.375    4.3059813 0.0084853306 -0.011176991    6.3943822 -0.011176991    6.3832052 
     520.875    4.3214912 0.0085442499 -0.030125245    6.4174145 -0.030125245    6.3872892 
     521.375    4.3124219 0.0085015479 -0.010687826    6.4039466 -0.010687826    6.3932588 
     521.875    4.3163265 0.0085061284 -0.011977745    6.4097448 -0.011977745    6.3977671 
     522.375    4.3208938 0.0085075915 -0.014083682    6.4165273 -0.014083682    6.4024436 
     522.875    4.3263969 0.0085182872 -0.017330733    6.4246994 -0.017330733    6.4073687 
     523.375    4.3277459  0.008524244 -0.014618357    6.4267027 -0.014618357    6.4120843 
     523.875    4.3232321 0.0085510665 -0.0022705008    6.4199996 -0.0022705008    6.4177291 
     524.375     4.325999 0.0085598313 -0.0014289684    6.4241085 -0.0014289684    6.4226795 
     524.875    4.3360003 0.0085976397 -0.012155056    6.4389605 -0.012155056    6.4268054 
     525.375    4.3506961 0.0085978235 -0.029745068    6.4607838 -0.029745068    6.4310387 
     525.875    4.3382986 0.0087213047 -0.0057532833    6.4423734 -0.0057532833    6.4366201 
     526.375    4.3437992 0.0085649807 -0.0093604232    6.4505418 -0.0093604232    6.4411814 
     526.875    4.3429075 0.0085895007 -0.0023979768    6.4492176 -0.0023979768    6.4468196 
     527.375    4.3520618 0.0085782549 -0.011368139    6.4628118 -0.011368139    6.4514437 
     527.875     4.354191 0.0085886757 -0.0092115848    6.4659736 -0.0092115848     6.456762 
     528.375    4.3654704 0.0086255865  -0.02148542    6.4827235  -0.02148542    6.4612381 
     528.875    4.3657047 0.0086330849 -0.016648322    6.4830715 -0.016648322    6.4664231 
     529.375    4.3661408 0.0086429419 -0.012058884    6.4837191 -0.012058884    6.4716602 
     529.875    4.3673235 0.0086156751 -0.0089441549    6.4854754 -0.0089441549    6.4765313 
     530.375    4.3688131 0.0086278582 -0.0061613106    6.4876875 -0.0061613106    6.4815262 
     530.875    4.3777285 0.0086723053 -0.014701658    6.5009268 -0.014701658    6.4862251 
     531.375    4.3747713 0.0086436102 -0.004976376    6.4965353 -0.004976376     6.491559 
     531.875    4.3777477 0.0086525211 -0.0042327063    6.5009553 -0.0042327063    6.4967226 
     532.375    4.3791931 0.0086647402 -0.0015436377    6.5031017 -0.0015436377    6.5015581 
     532.875    4.3872461 0.0086608933 -0.0089920197    6.5150604 -0.0089920197    6.5060684 
     533.375     4.389807 0.0086590296 -0.0087976529    6.5188634 -0.0087976529    6.5100657 
     533.875    4.3915426 0.0086756548 -0.0052637996    6.5214407 -0.0052637996    6.5161769 
     534.375    4.3944882 0.0086814215 -0.0050669908    6.5258149 -0.0050669908     6.520748 
     534.875    4.3972849 0.0086923602 -0.0037229088     6.529968 -0.0037229088    6.5262451 
     535.375    4.4033044 0.0086939961 -0.0078234822     6.538907 -0.0078234822    6.5310836 
     535.875    4.4139236 0.0087720683 -0.018961724    6.5546765 -0.018961724    6.5357148 
     536.375    4.4091249 0.0087056789 -0.0064636342    6.5475505 -0.0064636342    6.5410868 
     536.875    4.4221774 0.0087692683 -0.021070817    6.5669335 -0.021070817    6.5458627 
     537.375    4.4129037 0.0087282637 -0.0023491912    6.5531621 -0.0023491912    6.5508129 
     537.875    4.4222126 0.0087147937 -0.012108481    6.5669857 -0.012108481    6.5548772 
     538.375    4.4255968 0.0087320476 -0.011464217    6.5720113 -0.011464217     6.560547 
     538.875     4.424539 0.0087413365 -0.0049969322    6.5704404 -0.0049969322    6.5654435 
     539.375      4.46023 0.0087913146 -0.053982259    6.6234416 -0.053982259    6.5694593 
     539.875     4.436353 0.0087372703 -0.013323206    6.5879842 -0.013323206     6.574661 
     540.375    4.4349276 0.0087609219 -0.0053958636    6.5858676 -0.0053958636    6.5804717 
     540.875     4.443157 0.0087564392 -0.012715967    6.5980881 -0.012715967    6.5853722 
     541.375     4.442291  0.009006067 -0.006706123    6.5968022 -0.006706123    6.5900961 
     541.875    4.4467866 0.0088773883 -0.0094815693    6.6034782 -0.0094815693    6.5939966 
     542.375    4.4497263 0.0087811093 -0.0081245073    6.6078436 -0.0081245073    6.5997191 
     542.875    4.4260048  0.009285088  0.032075327    6.5726171  0.032075327    6.6046925 
     543.375    4.4611664 0.0087897234 -0.015099641    6.6248321 -0.015099641    6.6097325 
     543.875    4.4590364 0.0088010301 -0.0072991457     6.621669 -0.0072991457    6.6143699 
     544.375    4.4701726 0.0087832144 -0.019969176    6.6382064 -0.019969176    6.6182372 
     544.875    4.4628069  0.008822645 -0.0034924472    6.6272683 -0.0034924472    6.6237759 
     545.375    4.4704906 0.0088173677 -0.0097647523    6.6386786 -0.0097647523    6.6289138 
     545.875    4.4719415   0.00882932 -0.0069251709    6.6408332 -0.0069251709     6.633908 
     546.375    4.4837896 0.0088132949 -0.019682477    6.6584275 -0.019682477    6.6387451 
     546.875    4.4766205  0.008847669 -0.0042070923    6.6477815 -0.0042070923    6.6435744 
     547.375    4.4804218 0.0088513145 -0.0051813388    6.6534264 -0.0051813388    6.6482451 
     547.875    4.4812886 0.0088709973 -0.0004916244    6.6547136 -0.0004916244     6.654222 
     548.375    4.4853237 0.0088744823 -0.0016404325    6.6607058 -0.0016404325    6.6590653 
     548.875    4.4913138 0.0088709861 -0.0058566574     6.669601 -0.0058566574    6.6637444 
     549.375    4.5025983 0.0089390424 -0.018204411    6.6863585 -0.018204411    6.6681541 
     549.875    4.4970448 0.0088841306 -0.0051440783    6.6781116 -0.0051440783    6.6729675 
     550.375    4.5002871 0.0088916066 -0.0048654917    6.6829263 -0.0048654917    6.6780608 
     550.875    4.5053102 0.0088919099 -0.0078171788    6.6903857 -0.0078171788    6.6825685 
     551.375    4.5085961 0.0088979923 -0.007578024    6.6952652 -0.007578024    6.6876872 
     551.875    4.5203935 0.0089090816 -0.020045834    6.7127844 -0.020045834    6.6927385 
     552.375    4.5187528 0.0092081443 -0.012588812    6.7103479 -0.012588812    6.6977591 
     552.875    4.5192305 0.0089179635 -0.0082976301    6.7110573 -0.0082976301    6.7027597 
     553.375    4.5206571  0.008930864 -0.005256056    6.7131759 -0.005256056    6.7079198 
     553.875    4.4683547 0.0099454256  0.077212779    6.6355067  0.077212779    6.7127195 
     554.375    4.5313306 0.0089254366 -0.012374264    6.7290259 -0.012374264    6.7166517 
     554.875    4.5396691 0.0089877034  -0.01892596    6.7414086  -0.01892596    6.7224827 
         555    4.5459681 0.0089914644  -0.02716929    6.7507626  -0.02716929    6.7235933 
Loop time of 1.47702 on 1 procs for 100000 steps with 100 atoms

Performance: 29248122.585 tau/day, 67703.987 timesteps/s
91.0% CPU use with 1 MPI tasks x 1 OpenMP threads

MPI task timing breakdown:
Section |  min time  |  avg time  |  max time  |%varavg| %total
---------------------------------------------------------------
Pair    | 0.073997   | 0.073997   | 0.073997   |   0.0 |  5.01
Neigh   | 0.27906    | 0.27906    | 0.27906    |   0.0 | 18.89
Comm    | 0.048004   | 0.048004   | 0.048004   |   0.0 |  3.25
Output  | 0.53523    | 0.53523    | 0.53523    |   0.0 | 36.24
Modify  | 0.48848    | 0.48848    | 0.48848    |   0.0 | 33.07
Other   |            | 0.05225    |            |       |  3.54

Nlocal:        100.000 ave         100 max         100 min
Histogram: 1 0 0 0 0 0 0 0 0 0
Nghost:        43.0000 ave          43 max          43 min
Histogram: 1 0 0 0 0 0 0 0 0 0
Neighs:        13.0000 ave          13 max          13 min
Histogram: 1 0 0 0 0 0 0 0 0 0

Total # of neighbors = 13
Ave neighs/atom = 0.13000000
Neighbor list builds = 5000
Dangerous builds = 5000
Total wall time: 0:00:01
